LAMMPS data file via write_data, version 17 Apr 2024, timestep = 1111, units = real

5216 atoms
11 atom types
512 bonds
1 bond types
1024 angles
3 angle types

0 41.291 xlo xhi
0 35.83 ylo yhi
0 41.42787 zlo zhi

Masses

1 26.9815
2 28.086
3 15.9994
4 15.9994
5 15.9994
6 15.9994
7 15.9994
8 24.305
9 1.00794
10 26.9815
11 22.989768

Pair Coeffs # lj/cut/coul/long

1 1.3298e-06 4.27124
2 1.8405e-06 3.30203
3 0.1554 3.16554
4 0.1554 3.16554
5 0.1554 3.16554
6 0.1554 3.16554
7 0.1554 3.16554
8 9.03e-07 5.26432
9 0 0
10 1.8405e-06 3.30203
11 0.1553 2.2344

Bond Coeffs # harmonic

1 554.13 1

Angle Coeffs # harmonic

1 15 110.1
2 15 110.1
3 6 110.1

Atoms # full

1 1 1 1.575 2.3415807897661898 1.5298084526283604 3.660985482146632 1 0 0
5 1 4 -1.1808 3.122325501613921 2.7540264191229067 4.771743870842244 1 0 0
6 1 5 -0.95 0.5600596758146067 1.5310782421092362 4.599414983809075 1 0 0
13 1 3 -1.05 0.29796101812502396 4.404591411322628 4.7408274711707 1 0 0
20 1 2 2.1 1.4347292046961246 0.02379805419921824 0.8689078253017449 1 0 0
25 1 3 -1.05 5.292557200090884 5.3207820753701816 0.33443851069558966 1 0 0
27 1 3 -1.05 2.7042049124727874 5.225994258489659 0.5102104878126542 1 0 0
29 1 2 2.1 4.073868243719233 4.543039442434095 0.9158321680162397 1 0 0
30 1 2 2.1 3.9752394505566344 1.5738053602263162 0.965382029958752 1 0 0
31 1 4 -1.1808 4.210494128853498 4.544617283499344 2.461362313263531 1 0 0
32 1 4 -1.1808 3.7723681438471073 1.5624464383701226 2.492176936696782 1 0 0
33 1 5 -0.95 1.3402445153568812 2.8924726274554686 2.5615058695649324 1 0 0
34 1 3 -1.05 2.7395607351392877 0.7415870646274563 0.36107814186815534 1 0 0
35 1 3 -1.05 4.025917440121222 3.0310250646509895 0.44456962843584946 1 0 0
36 1 3 -1.05 5.253566555689994 0.7136590346904682 0.5969824131445065 1 0 0
49 1 4 -1.1808 5.553429304583235 4.538894718794454 4.782444340511629 1 0 0
61 1 3 -1.05 0.18004310374357238 5.25798567187995 0.2945857785131758 1 0 0
64 1 8 1.36 4.843152925440564 2.9592892664914623 3.6323338740251954 1 0 0
72 1 3 -1.05 0.13370523989233998 0.7595303911950773 0.4937215329307222 1 0 0
76 1 9 0.425 5.28615746179247 0.5898278441425026 4.666219257424979 1 0 0
77 1 9 0.425 2.6319116310528 5.061104649565323 4.5504284818306076 1 0 0
79 1 9 0.425 0.08008141729532749 0.6256286947099943 4.603472164876862 1 0 0
80 1 9 0.425 1.8519850715941166 3.7819613015293574 2.602293047416631 1 0 0
46 1 1 1.575 4.8993437677216285 5.863938941277313 3.5828704374753686 1 0 0
37 1 1 1.575 7.347426037587738 1.4970399230720255 3.641689659488968 0 0 0
41 1 3 -1.05 8.289562950734314 2.7168526461468785 4.749763145074089 0 0 0
42 1 6 -1.0808 5.819626313063646 1.4655309842468003 4.699054903421786 1 0 0
56 1 2 2.1 6.6319365686226295 0.04974449444106272 0.9406026572693482 0 0 0
63 1 3 -1.05 7.848685506619 5.246257922244345 0.49885680717933617 0 0 0
65 1 2 2.1 9.153343770765714 4.522146129891166 0.8605444152567024 0 0 0
66 1 2 2.1 9.144604496077408 1.5335702226932661 0.8968388083193813 0 0 0
67 1 3 -1.05 9.289248354416662 4.457314148448801 2.445103998065604 0 0 0
68 1 3 -1.05 9.066731217149295 1.638784491953305 2.4729084181494305 0 0 0
69 1 6 -1.0808 6.568310326196996 2.743024557093272 2.5150245286694433 1 0 0
70 1 3 -1.05 7.876687370194198 0.7919659573818342 0.40402595313503925 0 0 0
71 1 3 -1.05 9.249025162379796 3.014003947279854 0.3622778928234768 0 0 0
73 1 9 0.425 7.6754566306364955 5.132014793541477 4.458468223548613 0 0 0
75 1 9 0.425 7.05478362492686 3.6455687023201944 2.466860351173722 0 0 0
86 1 6 -1.0808 10.83913405230886 1.652822230726316 4.593550381683849 0 0 0
93 1 3 -1.05 10.609335055732153 4.41551581348991 4.69598843456516 0 0 0
108 1 1 1.575 10.039473051764324 2.925189198125651 3.553637647894917 0 0 0
141 1 3 -1.05 10.463180430236926 5.214869872409779 0.3313178527139991 0 0 0
152 1 3 -1.05 10.480242259425962 0.7885841256238203 0.5264519473116189 0 0 0
159 1 9 0.425 10.34379054522008 0.7570235346389469 4.695777149187823 0 0 0
113 1 6 -1.0808 11.595263310776177 2.964304287193546 2.347261452301849 0 0 0
90 1 1 1.575 9.941401434196598 5.932378706533835 3.5875507310210244 0 0 0
81 1 8 1.36 12.581650011451833 1.3981048639077904 3.59043414756073 0 0 0
85 1 4 -1.1808 13.557566093059421 2.8231026317922923 4.698188000697255 0 0 0
105 1 3 -1.05 15.611499517779839 5.299659298932154 0.3006258519547136 0 0 0
107 1 3 -1.05 12.974129362043856 5.1830956529111685 0.45007223797375034 0 0 0
109 1 2 2.1 14.365710785125696 4.533916817476183 0.8192469680088917 0 0 0
110 1 2 2.1 14.346397865394097 1.5589271002013603 0.8925206076722839 0 0 0
111 1 4 -1.1808 14.465859301764356 4.40701638740508 2.354149307355693 0 0 0
112 1 4 -1.1808 14.275583083177354 1.6913475749676707 2.425567310789397 0 0 0
114 1 3 -1.05 13.005367863553152 0.84409258666721 0.41292506439794396 0 0 0
115 1 3 -1.05 14.282200599782135 3.023577317840703 0.2751851986004891 0 0 0
116 1 3 -1.05 15.618323701460417 0.7610734572841971 0.48671295798941894 0 0 0
122 1 5 -0.95 16.058229301475293 1.2891302244105955 4.86093181057034 0 0 0
129 1 4 -1.1808 15.792540671624966 4.32833857554295 4.67284180401701 0 0 0
136 1 2 2.1 16.945363790217826 0.033659604801595765 0.8398014821150532 0 0 0
144 1 1 1.575 14.945106434362508 3.0962793719045894 3.5130836239200263 0 0 0
149 1 5 -0.95 16.80227607249338 2.7428173535926907 2.6842611225260034 0 0 0
155 1 9 0.425 17.312004131647576 3.6332548563432754 2.698041918275945 0 0 0
156 1 9 0.425 15.473686070710032 0.46290400125937786 4.6541108226173815 0 0 0
157 1 9 0.425 12.87430361235838 5.205601158571342 4.575473372290817 0 0 0
160 1 9 0.425 12.168912104459444 3.774804084536445 2.6335067279125144 0 0 0
117 1 1 1.575 17.56839610976569 1.3446524328716385 3.675940989410351 0 0 0
5210 94 11 1 11.74385143318845 2.9990882018394287 0.0441945793950436 0 0 1
121 1 3 -1.05 18.664169518259857 2.6233755516655646 4.6892841621225845 0 0 0
143 1 3 -1.05 18.190541603689912 5.191590839144733 0.41400413823358534 0 0 0
145 1 2 2.1 19.519122159094298 4.492167844517594 0.7674664887916672 0 0 0
146 1 2 2.1 19.49954173080516 1.5364664121045861 0.8139597483491995 0 0 0
147 1 3 -1.05 19.652690633788403 4.385400130485743 2.358825417185606 0 0 0
148 1 3 -1.05 19.478294016661106 1.6452365925002632 2.3684626372546846 0 0 0
150 1 3 -1.05 18.214881106507647 0.8057013437051341 0.3420331582380487 0 0 0
151 1 3 -1.05 19.57548376553146 3.0007785520489443 0.2003492920902121 0 0 0
153 1 9 0.425 18.02997525065618 5.077737811552212 4.4320086853026055 0 0 0
161 1 1 1.575 22.930560240400006 1.4352542404445119 3.5251441354524142 0 0 0
166 1 5 -0.95 21.231663343250048 1.5237216667674103 4.546084571501437 0 0 0
173 1 3 -1.05 20.903362136008433 4.3695248657840065 4.655230642222113 0 0 0
180 1 2 2.1 22.131151287270534 0.046316697627389304 0.7671968457794668 0 0 0
187 1 3 -1.05 23.35857694190475 5.233839792477926 0.4561844178558274 0 0 0
188 1 1 1.575 20.299360677224758 2.9013281699262383 3.5250027530312416 0 0 0
193 1 5 -0.95 22.010606765599427 2.888620212779819 2.497474959757685 0 0 0
194 1 3 -1.05 23.366278429118502 0.852246999146884 0.26269713299305847 0 0 0
221 1 3 -1.05 20.788921043672357 5.258455882700458 0.2823403995785245 0 0 0
232 1 3 -1.05 20.802671876455857 0.7914813378402381 0.33335817129891887 0 0 0
239 1 9 0.425 20.74601250960048 0.6204077270616992 4.565643255478867 0 0 0
240 1 9 0.425 22.523657156740196 3.7762453712302184 2.551510397315262 0 0 0
237 1 9 0.425 23.289634361149975 5.100354119458894 4.541833309508803 0 0 0
131 1 5 -0.95 18.62534725398594 5.90679540083061 4.5341787844126955 0 0 0
170 1 1 1.575 20.254268756963363 5.896891594605767 3.5177533085167765 0 0 0
182 1 3 -1.05 22.219205709616876 0.032734753994676624 2.362448133973047 0 0 0
165 1 3 -1.05 23.835877451699528 2.7360360577930023 4.649311711785049 0 0 0
185 1 3 -1.05 25.958262820899805 5.326039840350095 0.2939716587881615 0 0 0
189 1 2 2.1 24.712981358709413 4.534556726300968 0.7760771543676042 0 0 0
190 1 2 2.1 24.66510060386994 1.5706709322769512 0.7716627189287274 0 0 0
191 1 3 -1.05 24.834362240517656 4.477422987614136 2.394181080456548 0 0 0
192 1 3 -1.05 24.508991068846658 1.643707378818449 2.3845713543694207 0 0 0
195 1 3 -1.05 24.711135531145704 3.0513557414494445 0.2955899327036161 0 0 0
196 1 3 -1.05 25.9456298549125 0.761520005504026 0.45890944953669294 0 0 0
197 1 1 1.575 28.14123741069511 1.4614967413924844 3.5695425056300354 0 0 0
201 1 4 -1.1808 28.881624588477393 2.731496924334637 4.695156242176066 0 0 0
202 1 5 -0.95 26.335401270056998 1.5233039816455956 4.535603623402842 0 0 0
209 1 3 -1.05 26.09280539311437 4.433804581977148 4.669681209989055 0 0 0
216 1 2 2.1 27.284581986360717 0.03618519663149485 0.7901993523983515 0 0 0
223 1 3 -1.05 28.53519686446114 5.2198863320852125 0.454501973246263 0 0 0
224 1 1 1.575 25.49797632444517 2.9386556262516526 3.542847864570164 0 0 0
229 1 5 -0.95 27.125628510225987 2.9051041276537792 2.5036256045311434 0 0 0
230 1 3 -1.05 28.53778282108323 0.8249232794640661 0.28818815486441285 0 0 0
233 1 9 0.425 28.454538374884724 5.119195290569683 4.562364697156297 0 0 0
235 1 9 0.425 27.67366470411039 3.771358625329994 2.5549958998062734 0 0 0
236 1 9 0.425 25.873073957102896 0.6087665711770017 4.507909901769086 0 0 0
206 1 1 1.575 25.514956745794006 5.919858562514075 3.5318713869984633 0 0 0
225 1 2 2.1 29.875825893757 4.519512174651797 0.8525120843630647 0 0 0
226 1 2 2.1 29.789743120333426 1.5368561938348346 0.9114751871890522 0 0 0
227 1 4 -1.1808 30.00778830161085 4.507903818492239 2.38521875098413 0 0 0
228 1 4 -1.1808 29.60567866467969 1.5912919277458724 2.422899307987639 0 0 0
231 1 3 -1.05 29.904992658010762 3.0141409643890977 0.2935917869146879 0 0 0
241 1 1 1.575 33.13543390615389 1.4690040128249802 3.7341710814372626 0 0 0
245 1 7 -1.1688 34.185734413260256 2.6501053703643738 4.69209561679771 0 0 0
246 1 6 -1.0808 31.54858949671889 1.401129080965674 4.77117644009435 0 0 0
253 1 4 -1.1808 31.318927875149413 4.51015243943856 4.714960610042731 0 0 0
260 1 2 2.1 32.44001560421331 0.046341170226305614 0.9053121198171233 0 0 0
267 1 3 -1.05 33.697077818027104 5.228772428351853 0.48649713249105575 0 0 0
268 1 8 1.36 30.633319822735928 2.9202003959104057 3.6037044311680178 0 0 0
269 1 2 2.1 35.029519302397496 4.503292465776671 0.836316161951693 0 0 0
270 1 2 2.1 34.99598282986583 1.5453804688362835 0.8546212009406947 0 0 0
272 1 3 -1.05 34.97070764498765 1.6064283351664292 2.439633585968951 0 0 0
273 1 6 -1.0808 32.40242047229784 2.7331183797884995 2.596780740399166 0 0 0
274 1 3 -1.05 33.68998479172606 0.8222648489416148 0.3872350554929733 0 0 0
301 1 3 -1.05 31.133815959922984 5.263834353838366 0.2696123985016883 0 0 0
312 1 3 -1.05 31.113912261609535 0.7897002970076353 0.497037669922647 0 0 0
317 1 9 0.425 33.53543019823401 5.117325523474348 4.631503150725646 0 0 0
319 1 9 0.425 31.082352080592962 0.4942179721179822 4.591575898121407 0 0 0
320 1 9 0.425 32.92426884335786 3.617789065076522 2.6182555434428623 0 0 0
271 1 3 -1.05 35.14017906835136 4.45329350949162 2.443412543695409 0 0 0
275 1 3 -1.05 35.02878350664651 3.0227227887494794 0.343403132618977 0 0 0
250 1 1 1.575 30.700706828242964 5.782537632449523 3.546003027508597 0 0 0
28 1 1 1.575 40.95391918025483 2.9308036823773596 3.6165211300152413 0 0 0
265 1 3 -1.05 36.292618099061784 5.280259510710335 0.3551639101720831 0 0 0
276 1 3 -1.05 36.27710491998128 0.7485242106546168 0.44570896177596575 0 0 0
277 1 1 1.575 38.358070725566286 1.4382098306767088 3.589676956585007 0 0 0
281 1 3 -1.05 39.334755772275884 2.722262023481467 4.710728653637424 0 0 0
282 1 5 -0.95 36.72919999917514 1.5037667047561254 4.625697743158045 0 0 0
289 1 3 -1.05 36.35667109164817 4.384711508312523 4.741523758801317 0 0 0
296 1 2 2.1 37.605360444642294 0.037326007980170516 0.8270659002261104 0 0 0
303 1 3 -1.05 38.87407201667481 5.256199114388744 0.5147926058809827 0 0 0
304 1 1 1.575 35.692130758923746 2.869028266980306 3.6702825742127976 0 0 0
305 1 2 2.1 40.193934004218036 4.519049838689665 0.8530997381276075 0 0 0
306 1 2 2.1 40.131932087213144 1.5636274179144707 0.8343057619995029 0 0 0
307 1 3 -1.05 40.33768227228535 4.4619472365707535 2.4429677691073803 0 0 0
308 1 3 -1.05 40.01949744848341 1.6440357076565668 2.436802379848535 0 0 0
309 1 5 -0.95 37.514975835672985 2.877350893168627 2.585127503335833 0 0 0
310 1 3 -1.05 38.85404095852737 0.8327924808801264 0.32818245545278674 0 0 0
311 1 3 -1.05 40.20340140600278 3.041964081061255 0.33617696297013894 0 0 0
313 1 9 0.425 38.78349557165627 5.105907176772132 4.667865565222057 0 0 0
315 1 9 0.425 37.97969838396566 3.7856389073289805 2.6769580691286996 0 0 0
316 1 9 0.425 36.20011224593783 0.627297923637342 4.6900264560313385 0 0 0
10 1 1 1.575 40.998724101413394 5.920028623290852 3.6212145183544067 0 0 0
286 1 1 1.575 35.72739247269379 5.851219121384179 3.6076352333443182 0 0 0
298 1 3 -1.05 37.73347096172591 35.82377434713522 2.4324471322159464 0 -1 0
14 1 3 -1.05 0.6115296900335042 7.215333773268433 4.742334626737208 1 0 0
15 1 5 -0.95 3.1180565044081687 5.959997409903056 4.64448465787939 1 0 0
19 1 1 1.575 2.3230604316891514 7.44377380055677 3.620002716196744 1 0 0
21 1 2 2.1 1.4327831448627022 6.041093060702166 0.8869351215521345 1 0 0
23 1 3 -1.05 1.2626918936051446 6.083045537542622 2.463198134462935 1 0 0
24 1 5 -0.95 3.8932029091058507 7.307741016868396 2.5568935548371656 1 0 0
26 1 3 -1.05 1.4454493519284417 7.50626274405945 0.38202194881087564 1 0 0
78 1 9 0.425 4.453548195898041 8.162464286059098 2.443546876923787 1 0 0
321 1 1 1.575 2.2082177962257146 10.481424085054941 3.54148376860938 1 0 0
324 1 3 -1.05 2.9859215726012023 8.763800219596257 4.780035185695824 1 0 0
325 1 3 -1.05 3.1903506510873427 11.678286916750668 4.70119437910143 1 0 0
326 1 6 -1.0808 0.7085851179218594 10.363859269781216 4.638712490767069 1 0 0
340 1 2 2.1 1.467863813292388 8.99416226434346 0.8822675802651249 1 0 0
342 1 3 -1.05 1.6364951401101966 8.894124438809104 2.4852982840722966 1 0 0
350 1 2 2.1 4.013939846986018 10.506727471320449 0.7878960510861882 1 0 0
352 1 3 -1.05 3.8966832659624107 10.600035262793378 2.4120323887195783 1 0 0
353 1 6 -1.0808 1.3766141444892237 11.74868100258257 2.5028946489777972 1 0 0
354 1 3 -1.05 2.688494965874124 9.77492832187932 0.3463296569956635 1 0 0
356 1 7 -1.1688 5.255646771680279 9.733934134533031 0.38452812394297775 1 0 0
384 1 1 1.575 4.802541013104379 11.88723627895536 3.5372813595684276 1 0 0
392 1 3 -1.05 0.09883881736268059 9.697079011472201 0.591975148165478 1 0 0
396 1 9 0.425 5.200759013210026 9.570078559375402 4.393356282615313 1 0 0
399 1 9 0.425 0.24810577046186202 9.449088344208768 4.592937122464364 1 0 0
50 1 3 -1.05 5.682364467047597 7.231974771349322 4.771242965239532 1 0 0
362 1 5 -0.95 5.669123041207619 10.468621513607808 4.554581202301985 1 0 0
51 1 5 -0.95 8.266590191295489 5.961297403739048 4.589897623818562 0 0 0
55 1 1 1.575 7.395559035235819 7.569973804487142 3.427571483617627 0 0 0
57 1 2 2.1 6.5670241632634205 6.119620023839305 0.7917084297022051 0 0 0
59 1 3 -1.05 6.4556875921746215 6.225029915529139 2.4172082548141476 1 0 0
60 1 5 -0.95 9.08175212773598 7.320578679774936 2.5222974852040356 0 0 0
62 1 7 -1.1688 6.6336257131789615 7.528406903229683 0.22812388584412066 0 0 0
94 1 3 -1.05 10.840482407424675 7.196708333844072 4.693139237578613 0 0 0
154 1 9 0.425 9.616664522317146 8.198265759517309 2.4748017750674483 0 0 0
357 1 1 1.575 7.439836124406455 10.49543823440381 3.3686229268031345 0 0 0
360 1 3 -1.05 8.063974893787584 8.782116192868715 4.713267694004841 0 0 0
361 1 4 -1.1808 8.232562956094144 11.62727482542492 4.624834052332168 0 0 0
376 1 10 1.575 6.614005811566171 9.038676511501931 0.8662474274583708 0 0 0
378 1 7 -1.1688 6.778857559136697 8.984866107167338 2.451998943100649 0 0 0
386 1 2 2.1 9.079592677237573 10.49756629353339 0.7502970070081217 0 0 0
388 1 4 -1.1808 8.936844657526173 10.572362616831294 2.284864011921425 0 0 0
389 1 5 -0.95 6.443893786766588 11.900095050825378 2.5159515055107597 0 0 0
390 1 7 -1.1688 7.856451407383179 9.812600741520948 0.1356466605381545 0 0 0
406 1 6 -1.0808 10.839883237649564 10.356386617380325 4.794626951976865 0 0 0
428 1 8 1.36 10.003293408599667 11.848021102063223 3.5022917559426943 0 0 0
472 1 3 -1.05 10.424526376495567 9.738393457529922 0.3844744490001187 0 0 0
479 1 9 0.425 10.347501457232575 9.520491141733938 4.451207361685797 0 0 0
103 1 3 -1.05 11.58758209507178 6.107819169609914 2.4099135138650176 0 0 0
95 1 6 -1.0808 13.381743263089469 6.097395780311834 4.583730416812406 0 0 0
99 1 1 1.575 12.607652680486515 7.417185028052957 3.4928330642569487 0 0 0
101 1 2 2.1 11.715777181888635 6.052812751996367 0.826255547605144 0 0 0
104 1 6 -1.0808 14.112420110625143 7.407179447404905 2.4089528849440045 0 0 0
106 1 3 -1.05 11.717914123080734 7.496448023537798 0.29027006189411514 0 0 0
126 1 8 1.36 15.129192152790262 5.985246960590961 3.487610519260307 0 0 0
130 1 4 -1.1808 16.207079598779078 7.3080853749048265 4.655610519890457 0 0 0
137 1 2 2.1 16.909835998812728 6.047712707074798 0.7738417592825502 0 0 0
139 1 4 -1.1808 16.85457660252327 6.1949615424285565 2.322187811955839 0 0 0
142 1 3 -1.05 17.02204565554599 7.5090042643342505 0.19270597875643894 0 0 0
158 1 9 0.425 14.521917065527878 8.35213791776337 2.37067088914383 0 0 0
401 1 1 1.575 12.693863762990645 10.419436233618958 3.442433667086429 0 0 0
404 1 3 -1.05 13.212059466805007 8.864328844952265 4.627653636992995 0 0 0
405 1 4 -1.1808 13.492775306604418 11.607137551477143 4.630112851829445 0 0 0
420 1 2 2.1 11.742390568419678 8.995964072872932 0.7712469555485302 0 0 0
422 1 3 -1.05 11.836853304582771 8.911664931373137 2.370580403946156 0 0 0
430 1 2 2.1 14.310900754724473 10.454402171670894 0.7768919399990305 0 0 0
432 1 4 -1.1808 14.199654483552415 10.424015754879585 2.331403126807208 0 0 0
433 1 6 -1.0808 11.767245717296353 11.691543232031384 2.501246334294414 0 0 0
434 1 3 -1.05 13.009565524157326 9.737382414452826 0.24253773747523572 0 0 0
436 1 3 -1.05 15.63177745541962 9.689149508630287 0.37834486924512273 0 0 0
442 1 6 -1.0808 16.239054743410513 10.398800303220703 4.501241950111394 0 0 0
456 1 2 2.1 16.9697552404483 8.992904728873222 0.7021058026786136 0 0 0
458 1 3 -1.05 17.182307546972684 8.950105209653858 2.289140614222717 0 0 0
464 1 8 1.36 15.157126061623906 11.871697285212697 3.4363613753171776 0 0 0
469 1 6 -1.0808 16.941243641695333 11.800749799198833 2.366011300486046 0 0 0
476 1 9 0.425 15.68302633302622 9.537320191549982 4.409513433034461 0 0 0
135 1 1 1.575 17.61486765572754 7.443994343173606 3.4471833538784944 0 0 0
140 1 5 -0.95 19.45456509093885 7.274946562912634 2.4662454548022863 0 0 0
174 1 3 -1.05 21.201545308358828 7.1818368495035765 4.672873734887275 0 0 0
179 1 1 1.575 22.86893053967404 7.407980000034653 3.504823967124037 0 0 0
181 1 2 2.1 22.06174014059197 6.026521247851532 0.7706327414631491 0 0 0
183 1 3 -1.05 21.941665447797206 6.111867045720744 2.3885577218301863 0 0 0
186 1 3 -1.05 22.083827312982034 7.498327691032025 0.27360830378726814 0 0 0
234 1 9 0.425 19.93025294472247 8.181620614892676 2.5262823254320885 0 0 0
437 1 1 1.575 17.6850281687599 10.48133856350159 3.3762672133635925 0 0 0
440 1 3 -1.05 18.484480878021415 8.762287036497256 4.616953731724688 0 0 0
441 1 3 -1.05 18.717566429681263 11.668571157338297 4.573545380928528 0 0 0
466 1 2 2.1 19.498845433337603 10.539520881887967 0.7254585745339153 0 0 0
468 1 3 -1.05 19.40389573318073 10.576697474973695 2.302101260137096 0 0 0
470 1 3 -1.05 18.256880541524723 9.750986503257467 0.13389502829744446 0 0 0
481 1 1 1.575 22.88128593907794 10.40118057605718 3.5089381484732014 0 0 0
486 1 5 -0.95 21.19404077548812 10.447084394505275 4.496078847920004 0 0 0
500 1 2 2.1 22.110335568290395 8.988398749585897 0.7332126269728022 0 0 0
502 1 3 -1.05 22.211002874561093 8.929101009100982 2.3511022798535723 0 0 0
513 1 5 -0.95 22.00342642795344 11.822541944323001 2.4855066267015955 0 0 0
514 1 3 -1.05 23.380891698396844 9.750589793763366 0.27224115682000233 0 0 0
552 1 3 -1.05 20.784171531074133 9.717013403125918 0.34513911009535964 0 0 0
559 1 9 0.425 20.64532869503085 9.58606545882007 4.388316122413707 0 0 0
484 1 3 -1.05 23.471324288688635 8.869930412424816 4.637140415827546 0 0 0
175 1 5 -0.95 23.76760524468841 6.007362616214214 4.53811730689557 0 0 0
184 1 5 -0.95 24.5617357849132 7.360021249705222 2.5091352572445342 0 0 0
210 1 3 -1.05 26.421768865874142 7.225310621469051 4.651148674164497 0 0 0
211 1 5 -0.95 28.957500676966504 6.013979596991343 4.540747367566312 0 0 0
215 1 1 1.575 28.106150948947775 7.417831530308339 3.5282216308010095 0 0 0
217 1 2 2.1 27.25674364153696 6.044091423112407 0.7702222302069538 0 0 0
219 1 3 -1.05 27.119275314846814 6.142078743404252 2.389312413090755 0 0 0
222 1 3 -1.05 27.3232252151899 7.527765714273634 0.2904366402275505 0 0 0
238 1 9 0.425 25.069348231987316 8.251644046459058 2.5268234261539764 0 0 0
485 1 3 -1.05 23.839293439128944 11.672843620991753 4.649965713555408 0 0 0
510 1 2 2.1 24.64821684292993 10.50441515499582 0.7742539575057954 0 0 0
512 1 3 -1.05 24.511302628221305 10.569991294991533 2.385290758423958 0 0 0
516 1 3 -1.05 25.95465244438031 9.718324731183388 0.4441480681211734 0 0 0
517 1 1 1.575 28.064935103514205 10.418883859105325 3.5500582643400183 0 0 0
520 1 3 -1.05 28.705977869358296 8.90768235391285 4.673071037410696 0 0 0
521 1 3 -1.05 28.92838208596732 11.72397022965835 4.678812252725704 0 0 0
522 1 5 -0.95 26.367149194962426 10.46255928176736 4.537000449962859 0 0 0
536 1 2 2.1 27.29442953267694 9.002072996191743 0.7902204375878494 0 0 0
538 1 3 -1.05 27.423742268272647 8.951020731843961 2.390058490906397 0 0 0
549 1 5 -0.95 27.13401065810096 11.836833185079378 2.506530099044053 0 0 0
550 1 3 -1.05 28.532536573387457 9.816283522501362 0.27877509944660345 0 0 0
556 1 9 0.425 25.8647492931197 9.568648379478963 4.518981035634718 0 0 0
220 1 5 -0.95 29.74772203338929 7.4059141911659125 2.5164809012133054 0 0 0
254 1 3 -1.05 31.610861613594448 7.240435557242479 4.725746405943253 0 0 0
255 1 5 -0.95 34.09147565562388 5.982851875190437 4.60662084820583 0 0 0
259 1 1 1.575 33.15494304699422 7.4892364034154575 3.5596580197816974 0 0 0
261 1 2 2.1 32.39909988645768 6.025996024301021 0.7937610523741722 0 0 0
263 1 3 -1.05 32.24914314466703 6.118458047511684 2.398552593921044 0 0 0
264 1 5 -0.95 34.9112418507083 7.331849869672724 2.5679619616417586 0 0 0
266 1 3 -1.05 32.44471722456089 7.505107658837433 0.2856746449949012 0 0 0
314 1 9 0.425 30.34836828905718 8.227812945858437 2.6485384933908485 0 0 0
546 1 2 2.1 29.798859606401535 10.517189822803894 0.8334450371825306 0 0 0
548 1 3 -1.05 29.643669414177005 10.617680816094817 2.4071707540476233 0 0 0
561 1 8 1.36 33.20665784903618 10.401383957154957 3.561555923795085 0 0 0
564 1 4 -1.1808 33.84345011104008 8.804688431922793 4.714655721930723 0 0 0
565 1 4 -1.1808 34.23347975183912 11.731611713164954 4.753379411544836 0 0 0
566 1 6 -1.0808 31.433751024183984 10.616751104321919 4.529908812085829 0 0 0
580 1 2 2.1 32.43331627775029 8.939579596514385 0.8784474597663587 0 0 0
582 1 4 -1.1808 32.523960924471275 8.829202422617566 2.4141571673246425 0 0 0
590 1 2 2.1 35.00043684215814 10.515191797866843 0.9118749768949279 0 0 0
592 1 4 -1.1808 34.928609647003896 10.625627888356352 2.4438513598713656 0 0 0
594 1 3 -1.05 33.65309425659939 9.844422830912187 0.4001985484077144 0 0 0
632 1 3 -1.05 31.12829165145064 9.76160663040134 0.4971943688332393 0 0 0
639 1 9 0.425 30.91231503863242 9.731136328543888 4.530118359797838 0 0 0
348 1 8 1.36 40.95268785147644 11.85715739225102 3.6597584160654035 0 0 0
74 1 9 0.425 40.545971790242724 8.267520709744785 2.649246965962587 0 0 0
290 1 3 -1.05 36.7409646835093 7.192531654873445 4.747897286750332 0 0 0
291 1 5 -0.95 39.284677867872865 5.999115187503623 4.614996468183497 0 0 0
295 1 1 1.575 38.339059814893155 7.409576129973071 3.582895776505868 0 0 0
297 1 2 2.1 37.56341711492497 6.035528846578461 0.8328127153156121 0 0 0
299 1 3 -1.05 37.448255825993435 6.128777128643708 2.4490364150079524 0 0 0
300 1 5 -0.95 40.054042136096825 7.367546359751068 2.5851609990160775 0 0 0
302 1 3 -1.05 37.60633355895584 7.5148272085808 0.331820006243134 0 0 0
318 1 9 0.425 35.44553531383622 8.20325540250814 2.646953938379491 0 0 0
596 1 3 -1.05 36.269871458633084 9.738790052060603 0.4724249328257474 0 0 0
597 1 1 1.575 38.42923706517894 10.441137319096505 3.6327296869013512 0 0 0
600 1 3 -1.05 38.955115031635614 8.846215510443008 4.751112408667323 0 0 0
601 1 4 -1.1808 39.22213387628143 11.58557915431619 4.823261071395344 0 0 0
602 1 5 -0.95 36.6581652124064 10.40815430795886 4.623173653083726 0 0 0
616 1 2 2.1 37.58800465675867 8.983592868303473 0.8416764363439986 0 0 0
618 1 3 -1.05 37.700201888535744 8.905670547311841 2.4253824780192383 0 0 0
624 1 1 1.575 35.73011342014469 11.829649651721548 3.641586326451354 0 0 0
626 1 2 2.1 40.12223817492547 10.497134973254704 0.985824811791648 0 0 0
628 1 4 -1.1808 39.88292510636694 10.516181151957305 2.4840980551971845 0 0 0
629 1 5 -0.95 37.46409018362618 11.847907429100328 2.618201392734384 0 0 0
630 1 3 -1.05 38.82697116858341 9.803155641284874 0.2830327840055652 0 0 0
636 1 9 0.425 36.17908083766817 9.51139443616309 4.489690772382098 0 0 0
333 1 4 -1.1808 0.28809496687017583 13.446164342225735 4.780518442189573 1 0 0
334 1 3 -1.05 0.5935383067010334 16.18993463862741 4.790935136252852 1 0 0
335 1 5 -0.95 3.0395585292927154 14.900247929452908 4.672544612565145 1 0 0
339 1 1 1.575 2.2168920210377414 16.276343077621153 3.663224673832496 1 0 0
341 1 2 2.1 1.3773500830389611 14.997656971078133 0.874827755513542 1 0 0
343 1 3 -1.05 1.2722499308833342 15.090943485140052 2.474575792151306 1 0 0
344 1 5 -0.95 3.8485332430088897 16.262687939400237 2.5978168665287233 1 0 0
345 1 3 -1.05 5.2408401660627115 14.26133878715161 0.2625599908026682 1 0 0
346 1 3 -1.05 1.4150305643156196 16.48333841722023 0.37491934225321777 1 0 0
347 1 3 -1.05 2.6690628297649117 14.213840734433429 0.5009357474927287 1 0 0
349 1 2 2.1 4.011944244984737 13.473847982258944 0.8180019850466804 1 0 0
351 1 3 -1.05 4.139447154941457 13.401728794294977 2.4173161161438843 1 0 0
355 1 3 -1.05 3.999933878709685 12.001725002946035 0.30558528521539413 1 0 0
366 1 1 1.575 4.931448960990972 14.862072216469262 3.52122844202722 1 0 0
381 1 3 -1.05 0.10236177981111967 14.242659665490207 0.3728751749207831 1 0 0
397 1 9 0.425 2.550635914738544 14.00102539965868 4.589012730011385 1 0 0
398 1 9 0.425 4.379372415815259 17.141298563852214 2.6029800579680487 1 0 0
400 1 9 0.425 1.874848021692344 12.645534044796605 2.4650335213697843 1 0 0
369 1 3 -1.05 5.430808488895593 13.369325410403672 4.709918938211071 1 0 0
370 1 4 -1.1808 5.658535288367901 16.086738183138923 4.703723852084917 1 0 0
644 1 3 -1.05 2.8763711485895844 17.790017906343135 4.750514959502194 1 0 0
371 1 6 -1.0808 8.354664626657524 14.819287769242475 4.592298930810655 0 0 0
375 1 8 1.36 7.433524879839751 16.331889458457795 3.524657313064985 0 0 0
377 1 2 2.1 6.540301044730949 14.978749461019854 0.8249841020232864 0 0 0
379 1 4 -1.1808 6.368019546584728 14.976639537194803 2.3744213360885564 0 0 0
380 1 6 -1.0808 9.198540593820365 16.185481270632334 2.495645758518082 0 0 0
382 1 3 -1.05 6.5998611653124275 16.470838212212836 0.351417462111092 0 0 0
383 1 3 -1.05 7.835164989221479 14.181486231972544 0.4324304457662107 0 0 0
385 1 2 2.1 9.171272917850107 13.492072247050306 0.82361519116051 0 0 0
387 1 4 -1.1808 9.345620769379655 13.428214926433329 2.332325037809405 0 0 0
391 1 3 -1.05 9.243937314370802 12.009691955063499 0.1924529158698882 0 0 0
393 1 9 0.425 7.815018090070262 13.95055939128316 4.507150294969636 0 0 0
395 1 9 0.425 6.928999817484702 12.80749463692877 2.5488724055437224 0 0 0
410 1 1 1.575 9.88049941548235 14.753371952827152 3.512473089235285 0 0 0
413 1 4 -1.1808 10.706839304461617 13.45562546051666 4.6153120141384045 0 0 0
414 1 3 -1.05 10.99380964435034 16.214308293349895 4.651634779891225 0 0 0
461 1 3 -1.05 10.467367671631104 14.206959051781922 0.1960763724578373 0 0 0
474 1 9 0.425 9.764441141005628 17.038214048797762 2.559364645990408 0 0 0
423 1 3 -1.05 11.690070479973217 15.051000544352744 2.3233247034380002 0 0 0
415 1 5 -0.95 13.448292018029154 14.939544176140958 4.54511786024391 0 0 0
419 1 1 1.575 12.508954631616747 16.316453957565432 3.473719013828946 0 0 0
421 1 2 2.1 11.743071374584808 14.985463666377205 0.7439826641472602 0 0 0
424 1 5 -0.95 14.23314327261621 16.297096588975652 2.4992610191422626 0 0 0
425 1 3 -1.05 15.613703783672007 14.231949524171185 0.22529478916188186 0 0 0
426 1 3 -1.05 11.772280529931086 16.464638325482916 0.2512024975251284 0 0 0
427 1 3 -1.05 13.006424043004186 14.15512574024558 0.32720623039463287 0 0 0
429 1 2 2.1 14.352545980375758 13.454650865921845 0.7600744773533973 0 0 0
431 1 4 -1.1808 14.464312767523985 13.476850814644111 2.3112686002261045 0 0 0
435 1 3 -1.05 14.341908445231509 11.950030303979496 0.30311778185453964 0 0 0
446 1 1 1.575 15.12560757723729 14.758338697426598 3.44092818114751 0 0 0
449 1 4 -1.1808 15.81360316787777 13.459933005581258 4.610149099212478 0 0 0
450 1 3 -1.05 16.090266087762945 16.199619667232504 4.638692161459003 0 0 0
457 1 2 2.1 16.869420271823934 14.995164274914881 0.7413532519307895 0 0 0
459 1 3 -1.05 16.756378212022142 15.06381042240387 2.3491787383995946 0 0 0
462 1 3 -1.05 16.93140957429735 16.47084719601155 0.23747004881668568 0 0 0
477 1 9 0.425 12.882501166643962 14.082278658609997 4.4790136952709965 0 0 0
478 1 9 0.425 14.78389743051807 17.16195475974785 2.5309592180398703 0 0 0
480 1 9 0.425 12.220500751901644 12.614046907712607 2.558657846959461 0 0 0
742 1 3 -1.05 11.911949267325136 17.861968369816026 2.3794275683195165 0 0 0
778 1 4 -1.1808 17.008293311327755 17.80798059261378 2.3563470976194583 0 0 0
475 1 9 0.425 17.367591302935782 12.734400305490473 2.40934548877305 0 0 0
724 1 3 -1.05 13.212653469502115 17.881980524849773 4.648630638976949 0 0 0
508 1 1 1.575 20.28241951022272 11.943817491651187 3.471713518497467 0 0 0