ITEM: TIMESTEP
0
ITEM: NUMBER OF ATOMS
179
ITEM: BOX BOUNDS pp pp pp
-2.6348099999999999e+01 2.6348099999999999e+01
-2.5981400000000001e+01 2.4881399999999999e+01
-2.0000000000000000e+01 2.0000000000000000e+01
ITEM: ATOMS id type q x y z
137 2 -0.4 -3.13973 -10.0807 -0.604191
139 3 0.2 -5.1662 -10.7253 -0.0702442
73 4 0.2 -0.000102758 -7.20365 -0.247682
134 2 -0.4 0.219829 -9.94312 -1.1699
135 3 0.2 0.533585 -10.8148 -1.42019
71 4 0.2 2.47694 -7.14377 -0.054421
72 1 0.014 1.26365 -7.91213 -0.240296
78 4 0.2 1.28598 -9.33235 -0.478171
133 2 -0.4 2.4812 -10.0652 -0.687756
144 2 -0.4 -9.94963 -2.43492 -1.39162
145 3 0.2 -10.8612 -2.56494 -1.66334
96 1 0.014 -8.83253 -0.727488 -0.0782251
100 4 0.2 -10.0473 -1.44266 -0.387977
143 2 -0.4 -11.3232 -0.841656 -0.535693
178 2 -0.4 -3.93006 -5.11058 -1.67946
179 3 0.2 -3.85363 -6.02735 -1.96222
177 2 -0.4 -0.210452 -6.68046 -1.54591
64 4 0.2 -1.25185 -3.61325 -0.0399952
68 1 0.014 -1.26309 -5.04116 -0.266129
69 1 0.014 -2.52282 -5.76527 -0.169701
81 1 0.014 -1.3109 -0.737581 -0.208055
82 1 0.014 -2.51628 -2.89987 -0.119727
83 1 0.014 -2.54817 -1.46135 -0.129738
84 1 0.014 -3.80723 -0.751847 -0.110352
85 4 0.2 -3.76701 -5.04042 -0.255728
86 1 0.014 -3.76897 -3.60688 -0.134105
87 1 0.014 -5.02289 -2.88904 -0.0258813
88 1 0.014 -5.05514 -1.4623 -0.0475315
89 1 0.014 -6.3219 -0.762491 -0.0157419
61 4 0.2 -0.0559464 -1.45405 -0.270136
63 1 0.014 -0.0287049 -2.88956 -0.280548
67 4 0.2 -0.0156813 -5.76514 -0.461395
153 2 -0.4 3.10038 -0.906882 -1.38876
161 2 -0.4 0.567001 -1.04625 -1.46525
166 2 -0.4 5.38957 -1.71235 -1.57576
167 3 0.2 4.65134 -1.48402 -2.15393
169 2 -0.4 4.13454 -4.87462 -1.61054
170 3 0.2 3.35106 -4.97818 -2.16337
173 2 -0.4 1.47596 -4.86501 -2.02641
174 3 0.2 0.855135 -5.4346 -2.49973
41 4 0.2 1.19535 -0.727172 -0.215779
42 4 0.2 3.74748 -0.698329 -0.13464
43 4 0.2 2.47822 -1.40801 -0.213818
44 4 0.2 2.48614 -2.85609 -0.197275
46 4 0.2 5.04917 -1.41859 -0.177507
49 4 0.2 3.78534 -4.98095 -0.214593
62 1 0.014 1.24168 -3.58851 -0.38082
65 4 0.2 2.49256 -5.70514 -0.237377
66 4 0.2 1.24837 -5.01848 -0.605652
147 2 -0.4 -10.1423 2.28424 -1.16395
148 3 0.2 -10.8313 2.91607 -0.947625
111 1 0.014 -7.54182 1.40174 -0.0109675
112 1 0.014 -7.49931 2.82644 -0.0259202
119 3 0.2 -7.54095 5.64528 -0.00763547
156 2 -0.4 -0.647315 1.24044 -1.35179
5 1 0.014 -2.58148 5.71633 -0.0658552
6 1 0.014 -1.33954 4.99593 -0.0254952
101 4 0.2 -1.33974 0.706699 -0.219187
102 1 0.014 -3.82426 0.680618 -0.133572
103 1 0.014 -2.59322 1.40702 -0.173297
104 1 0.014 -2.60017 2.85126 -0.136638
105 1 0.014 -6.3104 0.673048 -0.0567303
106 1 0.014 -5.06657 1.39563 -0.112848
107 1 0.014 -5.06434 2.83707 -0.126694
108 1 0.014 -3.83294 3.56693 -0.144986
109 1 0.014 -3.83047 5.00166 -0.0944381
113 1 0.014 -6.29532 3.56186 -0.0778342
114 1 0.014 -6.30482 4.98593 -0.0610724
115 1 0.014 -5.07706 5.71767 -0.0751772
1 4 0.2 -0.0973102 1.43213 -0.058366
7 4 0.2 -0.078718 5.6931 -0.121184
149 2 -0.4 2.33025 2.18022 -1.22506
152 2 -0.4 4.98242 2.06638 -1.34329
159 2 -0.4 0.474751 5.16023 -1.30618
8 4 0.2 1.19953 4.99457 -0.0798823
9 4 0.2 2.47986 5.74094 -0.160132
23 4 0.2 2.41452 1.43769 -0.0105805
25 4 0.2 3.74851 5.04308 -0.0169969
26 4 0.2 3.71723 3.59286 -0.00418073
27 4 0.2 4.97045 2.87472 -0.169473
28 4 0.2 4.97414 1.43417 -0.0736976
31 1 0.014 5.00908 5.77391 -0.086024
32 1 0.014 6.22163 5.00994 -0.127568
33 1 0.014 6.21796 3.59297 -0.173237
126 2 -0.4 10.2009 2.88242 -0.00548964
34 1 0.014 7.45345 2.89624 -0.173869
35 1 0.014 7.52656 1.47718 -0.0189811
38 3 0.2 7.44458 5.69923 -0.135287
39 3 0.2 8.65336 3.62194 -0.220559
10 1 0.014 -3.81467 7.85207 -0.0721006
11 1 0.014 -2.5746 7.1504 -0.0761803
12 1 0.014 -1.32493 7.83565 -0.0939779
17 3 0.2 -3.82142 9.25392 -0.0798079
18 3 0.2 -1.25055 9.23663 -0.0831317
116 1 0.014 -5.05433 7.1427 -0.060689
120 3 0.2 -6.26133 7.85729 -0.0454626
13 1 0.014 -0.0829866 7.12987 -0.150426
162 2 -0.4 2.60462 6.49192 -1.37323
124 2 -0.4 6.24719 9.4071 -0.153975
14 4 0.2 1.16799 7.82762 -0.125851
15 4 0.2 2.46707 7.19436 -0.154483
30 1 0.014 5.02124 7.22533 -0.0401211
37 4 0.2 6.22959 8.00155 -0.00792825
125 3 0.2 7.17979 9.63233 -0.221883
123 2 -0.4 7.52162 7.43697 -0.150797
74 4 0.2 -1.24145 -7.81495 0.150489
75 1 0.014 -2.52684 -7.19633 0.0543618
76 1 0.014 -3.78051 -7.89221 0.23091
79 2 -0.4 -1.15994 -8.83436 1.15437
80 4 0.2 -3.95486 -9.3062 0.25338
90 1 0.014 -4.96777 -7.12853 0.34007
97 3 0.2 -6.15651 -7.8372 0.569377
136 3 0.2 -0.277062 -9.20963 1.1548
138 2 -0.4 -5.27343 -9.83569 0.278509
56 1 0.014 4.92873 -7.09212 0.330585
60 3 0.2 6.09448 -7.82453 0.592953
70 1 0.014 3.72359 -7.79441 0.147341
77 3 0.2 3.75111 -9.19442 0.112001
130 2 -0.4 7.65542 -7.13857 0.499786
141 2 -0.4 -8.98397 -4.79596 0.340611
142 3 0.2 -9.45288 -5.26948 1.032
94 1 0.014 -7.49994 -2.91249 0.345156
95 1 0.014 -7.58015 -1.48056 0.0705499
98 3 0.2 -7.37047 -5.67286 0.649601
99 4 0.2 -8.61096 -3.57654 0.96271
140 2 -0.4 -8.28044 -4.09986 2.24188
91 1 0.014 -4.96499 -5.72994 0.143391
92 1 0.014 -6.17395 -5.01844 0.321138
93 1 0.014 -6.24411 -3.60467 0.188411
175 2 -0.4 -1.14758 -3.64747 1.39243
176 3 0.2 -1.93247 -4.06185 1.76317
45 4 0.2 6.2778 -0.678967 0.107445
47 4 0.2 5.00788 -2.81263 0.313422
48 4 0.2 3.74179 -3.54841 0.0568095
53 1 0.014 6.26611 -3.55791 0.268236
54 1 0.014 6.28731 -5.00184 0.34098
55 1 0.014 5.00784 -5.67393 0.189735
164 2 -0.4 5.06585 -2.56126 1.74719
165 3 0.2 4.36217 -3.05721 2.18163
171 2 -0.4 2.29465 -6.26133 1.05586
172 2 -0.4 2.78849 -3.27849 1.11133
129 3 0.2 10.6831 -0.860648 0.254185
50 4 0.2 8.73899 -0.646587 0.186758
51 1 0.014 7.52206 -1.38814 0.173298
52 1 0.014 7.48883 -2.80565 0.199138
57 2 -0.4 9.91996 -1.44824 0.256672
58 3 0.2 8.71902 -3.4775 0.224589
59 4 0.2 7.52696 -5.72844 0.532512
131 2 -0.4 8.77851 -5.13787 0.81926
132 3 0.2 9.38011 -5.88398 0.902045
110 1 0.014 -8.8122 0.726123 0.000245156
117 4 0.2 -10.0325 1.48838 0.00642983
118 3 0.2 -8.75869 3.4455 0.0242538
146 2 -0.4 -10.0896 2.55153 0.957478
2 4 0.2 -1.36139 3.56254 0.0191066
160 2 -0.4 -0.95393 3.13721 1.29855
3 4 0.2 -0.103152 2.86118 0.168988
4 4 0.2 1.18197 3.58411 0.302848
21 4 0.2 1.14957 0.701286 0.1111
22 4 0.2 2.43281 2.88707 0.00803328
24 4 0.2 3.70233 0.735951 0.148057
29 4 0.2 6.25875 0.759527 0.0643405
150 2 -0.4 3.71286 0.635955 1.59134
151 3 0.2 4.56588 0.317129 1.91679
154 2 -0.4 1.06137 0.559103 1.55166
155 3 0.2 1.93308 0.481451 1.95754
157 2 -0.4 1.38262 3.80374 1.72616
158 3 0.2 0.658172 3.40244 2.22073
163 2 -0.4 3.83616 4.33805 1.20612
168 2 -0.4 6.25164 0.0708099 1.31041
36 1 0.014 8.8088 0.789529 0.0849324
40 4 0.2 10.0724 1.47281 0.073035
127 2 -0.4 11.327 0.828955 0.158346
128 3 0.2 11.9712 1.54083 0.132052
121 3 0.2 1.92383 9.62324 0.135371
122 3 0.2 4.57395 9.52211 0.629714
16 4 0.2 3.72707 7.8619 0.034215
19 2 -0.4 1.03953 9.23997 0.0866776
20 2 -0.4 3.66964 9.20054 0.534582
ITEM: TIMESTEP
1000
ITEM: NUMBER OF ATOMS
179
ITEM: BOX BOUNDS pp pp pp
-2.6348099999999999e+01 2.6348099999999999e+01
-2.5981400000000001e+01 2.4881399999999999e+01
-2.0000000000000000e+01 2.0000000000000000e+01
ITEM: ATOMS id type q x y z
137 2 -0.4 -3.16067 -10.0252 1.80655
139 3 0.2 -4.77038 -10.0424 3.17247
73 4 0.2 -0.0149633 -7.18745 -0.133341
134 2 -0.4 -0.0994182 -9.88801 -1.12971
135 3 0.2 0.107183 -10.6611 -1.66278
71 4 0.2 2.43861 -7.16596 -0.41675
72 1 0.014 1.19962 -7.90623 -0.429708
78 4 0.2 1.1418 -9.26926 -0.867618
133 2 -0.4 2.15743 -9.77244 -1.72132
144 2 -0.4 -8.3152 -2.02989 -2.98955
145 3 0.2 -8.62392 -1.90529 -3.88858
96 1 0.014 -8.53147 -0.731154 -0.914813
100 4 0.2 -9.07245 -1.10734 -2.1945
143 2 -0.4 -9.56403 -0.0736685 -3.03733
178 2 -0.4 -3.90393 -5.34547 -1.25701
179 3 0.2 -3.67853 -6.26446 -1.44028
177 2 -0.4 -0.49029 -6.69143 -1.36902
64 4 0.2 -1.22669 -3.5876 0.0677046
68 1 0.014 -1.25197 -5.02388 -0.027239
69 1 0.014 -2.46907 -5.74028 0.311374
81 1 0.014 -1.30234 -0.731999 -0.16735
82 1 0.014 -2.49857 -2.90292 -0.013794
83 1 0.014 -2.52848 -1.46547 -0.0677312
84 1 0.014 -3.77865 -0.764389 -0.0729545
85 4 0.2 -3.72116 -5.06292 0.136035
86 1 0.014 -3.74666 -3.62858 0.0271335
87 1 0.014 -5.00985 -2.92512 -0.0250092
88 1 0.014 -5.00952 -1.49691 -0.0904618
89 1 0.014 -6.24613 -0.783403 -0.162601
61 4 0.2 -0.0595811 -1.44589 -0.305216
63 1 0.014 -0.0386671 -2.88003 -0.325911
67 4 0.2 -0.0601263 -5.75851 -0.369697
153 2 -0.4 3.03624 -0.843784 -1.54974
161 2 -0.4 0.50637 -1.00842 -1.51529
166 2 -0.4 5.32997 -1.5929 -1.88299
167 3 0.2 4.59198 -1.27006 -2.4142
169 2 -0.4 3.93085 -4.85241 -2.04417
170 3 0.2 3.08647 -4.88933 -2.50837
173 2 -0.4 1.19352 -4.93686 -2.16959
174 3 0.2 0.479227 -5.48535 -2.51688
41 4 0.2 1.18978 -0.731954 -0.285522
42 4 0.2 3.73373 -0.710349 -0.31444
43 4 0.2 2.46449 -1.41576 -0.380393
44 4 0.2 2.45985 -2.86827 -0.442975
46 4 0.2 5.03077 -1.42489 -0.454365
49 4 0.2 3.73614 -4.99506 -0.619302
62 1 0.014 1.20405 -3.5939 -0.53758
65 4 0.2 2.4513 -5.72162 -0.525868
66 4 0.2 1.17221 -5.03086 -0.726176
147 2 -0.4 -10.2973 2.4369 -0.0125692
148 3 0.2 -11.1469 2.4147 0.438831
111 1 0.014 -7.53336 1.35346 -0.161629
112 1 0.014 -7.53071 2.76888 0.0183248
119 3 0.2 -7.56707 5.60088 0.387459
156 2 -0.4 -0.681799 1.30285 -1.24625
5 1 0.014 -2.60051 5.67913 0.448608
6 1 0.014 -1.35398 4.96745 0.356429
101 4 0.2 -1.33601 0.708258 -0.122475
102 1 0.014 -3.80689 0.669046 -0.0278267
103 1 0.014 -2.58471 1.40163 0.00213745
104 1 0.014 -2.60543 2.83433 0.158402
105 1 0.014 -6.27428 0.655099 -0.121579
106 1 0.014 -5.04974 1.37886 -0.00899015
107 1 0.014 -5.07588 2.8106 0.0994303
108 1 0.014 -3.84753 3.53906 0.209643
109 1 0.014 -3.85194 4.96217 0.386689
113 1 0.014 -6.32385 3.51719 0.15243
114 1 0.014 -6.33306 4.93381 0.342466
115 1 0.014 -5.10362 5.66896 0.457955
1 4 0.2 -0.0937934 1.42337 0.0360745
7 4 0.2 -0.105225 5.6661 0.171437
149 2 -0.4 2.29864 2.19658 -1.17279
152 2 -0.4 4.96345 2.08273 -1.35165
159 2 -0.4 0.341838 5.1782 -1.07933
8 4 0.2 1.17385 4.96877 0.0762304
9 4 0.2 2.44182 5.71866 -0.0942038
23 4 0.2 2.41437 1.41519 0.0122039
25 4 0.2 3.7233 5.02534 -0.0135405
26 4 0.2 3.7091 3.57633 0.02975
27 4 0.2 4.96018 2.857 -0.157339
28 4 0.2 4.96211 1.41212 -0.104626
31 1 0.014 4.97732 5.76054 -0.165235
32 1 0.014 6.19777 5.00036 -0.185083
33 1 0.014 6.20655 3.57914 -0.168192
126 2 -0.4 9.99235 2.78611 0.880693
34 1 0.014 7.44333 2.87291 -0.138659
35 1 0.014 7.50656 1.45017 -0.0203862
38 3 0.2 7.40931 5.7058 -0.237099
39 3 0.2 8.66404 3.56498 -0.0890435
10 1 0.014 -3.83515 7.80139 0.630287
11 1 0.014 -2.59494 7.10969 0.519003
12 1 0.014 -1.3504 7.799 0.415048
17 3 0.2 -3.84531 9.19829 0.706766
18 3 0.2 -1.28027 9.20009 0.443108
116 1 0.014 -5.07569 7.08922 0.600292
120 3 0.2 -6.28621 7.79711 0.672793
13 1 0.014 -0.11973 7.10171 0.177203
162 2 -0.4 2.47844 6.44915 -1.32705
124 2 -0.4 6.15281 9.40393 -0.497466
14 4 0.2 1.12689 7.79899 0.0357288
15 4 0.2 2.42183 7.16846 -0.109038
30 1 0.014 4.97328 7.21621 -0.186876
37 4 0.2 6.17071 8.00499 -0.281126
125 3 0.2 7.06064 9.64675 -0.682046
123 2 -0.4 7.43925 7.44157 -0.564067
74 4 0.2 -1.11132 -7.72762 0.636719
75 1 0.014 -2.39743 -7.09436 0.821539
76 1 0.014 -3.57376 -7.62168 1.49787
79 2 -0.4 -0.72853 -8.72499 1.58365
80 4 0.2 -3.64451 -8.79963 2.31417
90 1 0.014 -4.80381 -6.89935 1.37277
97 3 0.2 -5.92667 -7.47299 1.99784
136 3 0.2 0.132185 -9.08153 1.35011
138 2 -0.4 -4.83913 -9.09424 3.02883
56 1 0.014 4.92154 -7.14129 -0.385273
60 3 0.2 6.13206 -7.84444 -0.275484
70 1 0.014 3.69006 -7.83716 -0.480928
77 3 0.2 3.65512 -9.22451 -0.703723
130 2 -0.4 7.41668 -7.06599 0.700575
141 2 -0.4 -8.95795 -4.97237 0.164636
142 3 0.2 -9.91158 -5.10459 0.195934
94 1 0.014 -7.52346 -2.93663 -0.130941
95 1 0.014 -7.46262 -1.50703 -0.355797
98 3 0.2 -7.38074 -5.65967 0.778094
99 4 0.2 -8.82187 -3.57899 -0.0773417
140 2 -0.4 -10.0609 -2.8498 0.101968
91 1 0.014 -4.91217 -5.66688 0.663021
92 1 0.014 -6.17484 -5.00152 0.495336
93 1 0.014 -6.26284 -3.63471 0.077171
175 2 -0.4 -1.04895 -3.44817 1.48658
176 3 0.2 -1.78227 -3.88557 1.92709
45 4 0.2 6.26422 -0.712331 -0.13063
47 4 0.2 5.00046 -2.85553 -0.0774696
48 4 0.2 3.72214 -3.57452 -0.292647
53 1 0.014 6.2505 -3.5947 -0.240703
54 1 0.014 6.25121 -5.03966 -0.169929
55 1 0.014 4.97925 -5.7082 -0.351092
164 2 -0.4 5.14527 -2.73281 1.36667
165 3 0.2 4.49322 -3.29122 1.8015
171 2 -0.4 2.44186 -6.34458 0.754273
172 2 -0.4 2.83785 -3.34098 0.826865
129 3 0.2 10.6674 -0.859978 0.0850217
50 4 0.2 8.72728 -0.678543 -0.0234064
51 1 0.014 7.51464 -1.42306 -0.164862
52 1 0.014 7.47766 -2.84003 -0.301725
57 2 -0.4 9.92287 -1.45676 -0.0512778
58 3 0.2 8.70172 -3.52416 -0.31443
59 4 0.2 7.46015 -5.77931 0.107809
131 2 -0.4 8.67043 -5.15604 0.493502
132 3 0.2 9.18507 -5.85729 0.902197
110 1 0.014 -8.73165 0.597702 -0.421597
117 4 0.2 -10.078 1.06371 -0.294394
118 3 0.2 -8.78609 3.39152 -0.00408281
146 2 -0.4 -10.9144 0.299754 0.582765
2 4 0.2 -1.36657 3.53706 0.313781
160 2 -0.4 -0.889908 3.03211 1.53724
3 4 0.2 -0.0989046 2.83313 0.34526
4 4 0.2 1.1889 3.55296 0.432188
21 4 0.2 1.1542 0.674876 0.125841
22 4 0.2 2.43323 2.86258 0.0778143
24 4 0.2 3.70011 0.697221 0.0885141
29 4 0.2 6.24599 0.725031 -0.0211656
150 2 -0.4 3.7398 0.474384 1.51964
151 3 0.2 4.6062 0.148287 1.79583
154 2 -0.4 1.1018 0.456841 1.55762
155 3 0.2 1.96074 0.198235 1.91099
157 2 -0.4 1.44677 3.74701 1.85064
158 3 0.2 0.763666 3.29696 2.36797
163 2 -0.4 3.86371 4.34606 1.21975
168 2 -0.4 6.25074 -0.0936344 1.14462
36 1 0.014 8.784 0.759639 0.107852
40 4 0.2 10.0094 1.46401 0.355693
127 2 -0.4 11.1998 0.795709 0.714834
128 3 0.2 11.7675 1.48081 1.08294
121 3 0.2 1.87781 9.61447 0.0681203
122 3 0.2 4.5542 9.53015 0.453528
16 4 0.2 3.68215 7.84876 -0.0385253
19 2 -0.4 1.00215 9.22091 0.171502
20 2 -0.4 3.64711 9.19955 0.435406
ITEM: TIMESTEP
2000
ITEM: NUMBER OF ATOMS
179
ITEM: BOX BOUNDS pp pp pp
-2.6348099999999999e+01 2.6348099999999999e+01
-2.5981400000000001e+01 2.4881399999999999e+01
-2.0000000000000000e+01 2.0000000000000000e+01
ITEM: ATOMS id type q x y z
73 4 0.2 -0.0202188 -7.09974 1.18966
134 2 -0.4 1.28131 -7.19911 3.67915
135 3 0.2 1.86895 -7.36141 4.41867
71 4 0.2 2.41077 -6.96435 0.430472
72 1 0.014 1.371 -7.49939 1.32019
78 4 0.2 1.77554 -7.97371 2.58892
133 2 -0.4 3.05837 -8.57714 2.73612
56 1 0.014 4.7198 -6.97481 -0.521889
60 3 0.2 5.95777 -7.63148 -0.599696
70 1 0.014 3.64516 -7.61315 0.16931
77 3 0.2 3.85141 -8.85212 0.802718
144 2 -0.4 -7.44469 -2.91453 -4.37116
145 3 0.2 -7.16231 -2.78754 -5.28153
96 1 0.014 -7.27815 -0.943133 -2.60609
100 4 0.2 -7.62203 -1.54276 -3.90231
94 1 0.014 -7.07522 -3.05664 -1.3219
95 1 0.014 -6.84522 -1.65856 -1.42988
99 4 0.2 -8.39329 -3.46898 -1.77294
140 2 -0.4 -9.4337 -2.49461 -2.03647
178 2 -0.4 -3.40041 -5.57551 -1.16611
179 3 0.2 -4.10764 -5.30513 -1.76054
177 2 -0.4 -0.332126 -7.14013 -0.181974
68 1 0.014 -1.33277 -5.14702 0.661859
81 1 0.014 -1.39713 -0.938659 0.977367
82 1 0.014 -2.55382 -3.08741 0.673361
83 1 0.014 -2.62373 -1.66979 0.866136
84 1 0.014 -3.85337 -0.980086 0.648256
87 1 0.014 -4.91192 -3.11006 -0.110713
88 1 0.014 -4.97912 -1.69332 0.1079
89 1 0.014 -6.07807 -0.990685 -0.440106
61 4 0.2 -0.205071 -1.58546 0.513569
63 1 0.014 -0.163393 -3.00193 0.381968
67 4 0.2 -0.131678 -5.85948 0.444705
153 2 -0.4 2.29875 -0.531617 -1.58139
161 2 -0.4 -0.0502228 -1.10293 -0.78504
166 2 -0.4 4.25833 -1.43477 -2.76013
167 3 0.2 3.37922 -1.07719 -2.93837
169 2 -0.4 3.03914 -5.06137 -2.44155
170 3 0.2 2.2931 -5.65268 -2.59518
173 2 -0.4 0.520408 -5.26409 -1.65311
174 3 0.2 0.154091 -6.15029 -1.77864
41 4 0.2 0.980815 -0.829476 0.210047
42 4 0.2 3.3893 -0.658656 -0.666005
43 4 0.2 2.13475 -1.38816 -0.441613
44 4 0.2 2.11554 -2.84267 -0.646327
46 4 0.2 4.54426 -1.33656 -1.33043
49 4 0.2 3.34071 -5.01599 -1.02864
62 1 0.014 0.94789 -3.6583 -0.262461
65 4 0.2 2.2509 -5.73211 -0.312879
66 4 0.2 0.937787 -5.12844 -0.274398
45 4 0.2 5.81771 -0.610226 -1.40109
47 4 0.2 4.66147 -2.80876 -1.09056
48 4 0.2 3.38114 -3.54507 -0.861274
53 1 0.014 5.77605 -3.52162 -1.73921
54 1 0.014 5.78632 -4.99985 -1.71483
55 1 0.014 4.62865 -5.65916 -1.10387
50 4 0.2 8.05318 -0.408389 -2.39744
51 1 0.014 6.93509 -1.25022 -2.05647
52 1 0.014 6.89106 -2.69449 -2.20163
57 2 -0.4 9.1046 -1.0228 -3.15033
58 3 0.2 8.02821 -3.32114 -2.74222
143 2 -0.4 -7.06326 -0.727678 -4.87379
111 1 0.014 -7.03802 1.11806 -1.20977
110 1 0.014 -7.61342 0.453805 -2.37505
117 4 0.2 -8.47463 1.13257 -3.31251
118 3 0.2 -8.02646 3.18913 -1.84191
156 2 -0.4 -0.924335 1.11376 -0.00516668
101 4 0.2 -1.44299 0.471438 1.16012
102 1 0.014 -3.90192 0.425819 0.819944
105 1 0.014 -6.14333 0.411863 -0.339818
106 1 0.014 -5.10026 1.10268 0.406136
149 2 -0.4 1.91012 2.30196 -0.337576
152 2 -0.4 4.42142 2.50733 -1.22448
159 2 -0.4 0.403412 4.89147 0.0786404
9 4 0.2 2.4508 5.47783 1.08239
25 4 0.2 3.74522 4.80654 0.994792
27 4 0.2 4.81749 2.77385 0.116665
28 4 0.2 4.72581 1.4077 -0.36788
31 1 0.014 4.9808 5.59407 0.810286
32 1 0.014 6.1549 4.86086 0.435058
33 1 0.014 6.08117 3.48588 0.0237072
29 4 0.2 5.9054 0.767042 -0.946325
34 1 0.014 7.18952 2.85242 -0.623317
35 1 0.014 7.12614 1.52497 -1.17057
38 3 0.2 7.34959 5.58657 0.315188
39 3 0.2 8.42417 3.50771 -0.759998
162 2 -0.4 2.44412 6.33794 -0.0790148
124 2 -0.4 6.31206 9.24941 1.10888
15 4 0.2 2.42584 6.93443 1.19641
30 1 0.014 5.01161 7.04101 1.03586
37 4 0.2 6.23044 7.83498 1.09994
16 4 0.2 3.71506 7.61755 1.32763
125 3 0.2 7.26346 9.41949 1.08723
123 2 -0.4 7.54162 7.3385 0.84783
137 2 -0.4 -4.00914 -5.86201 3.50067
139 3 0.2 -5.22081 -6.68434 4.51739
74 4 0.2 -1.24566 -7.63854 1.8269
75 1 0.014 -2.56382 -7.11564 1.43828
76 1 0.014 -3.85464 -7.4308 1.9385
79 2 -0.4 -1.10175 -8.7555 2.73483
80 4 0.2 -3.91198 -7.28862 3.34083
97 3 0.2 -6.27375 -7.24672 1.81908
138 2 -0.4 -5.17066 -7.46508 3.95738
136 3 0.2 -0.167557 -8.8856 2.91339
130 2 -0.4 6.86762 -7.22551 -2.26462
141 2 -0.4 -8.81389 -4.82676 -1.90357
142 3 0.2 -9.75203 -4.77265 -2.10492
98 3 0.2 -7.36029 -5.95837 -0.558913
64 4 0.2 -1.29424 -3.74699 0.828684
69 1 0.014 -2.5625 -5.86485 0.739605
85 4 0.2 -3.71932 -5.27073 0.173039
86 1 0.014 -3.71695 -3.82972 0.200966
90 1 0.014 -5.03184 -6.96786 1.21859
91 1 0.014 -5.00809 -5.8791 0.284603
92 1 0.014 -6.17217 -5.24755 -0.327889
93 1 0.014 -6.0657 -3.84111 -0.642969
175 2 -0.4 -0.96576 -3.59596 2.22685
176 3 0.2 -1.45795 -4.24029 2.74822
164 2 -0.4 5.29 -2.83004 0.223018
165 3 0.2 4.659 -3.17562 0.869387
171 2 -0.4 2.69183 -5.72337 1.0449
172 2 -0.4 2.87276 -3.17033 0.448836
129 3 0.2 9.79057 -0.359838 -3.29318
59 4 0.2 6.89219 -5.79222 -2.23378
131 2 -0.4 7.44292 -5.42628 -3.49519
132 3 0.2 7.8019 -6.24846 -3.84727
147 2 -0.4 -7.96893 2.44453 -3.56946
148 3 0.2 -8.70228 2.94105 -3.94931
112 1 0.014 -7.11712 2.51516 -1.01547
119 3 0.2 -7.13621 5.23186 -1.15778
146 2 -0.4 -9.8114 1.34127 -2.93828
5 1 0.014 -2.59936 5.40094 0.881761
6 1 0.014 -1.4097 4.68576 1.34717
103 1 0.014 -2.71897 1.13329 1.24524
104 1 0.014 -2.73618 2.56946 1.36609
107 1 0.014 -5.05413 2.52876 0.386501
108 1 0.014 -3.89776 3.27261 0.856136
109 1 0.014 -3.8205 4.68703 0.583031
113 1 0.014 -6.09033 3.21486 -0.336402
114 1 0.014 -6.06129 4.61232 -0.499476
115 1 0.014 -4.91977 5.35429 -0.077614
1 4 0.2 -0.167196 1.16895 1.19691
7 4 0.2 -0.130204 5.36633 1.29786
2 4 0.2 -1.44432 3.25789 1.55591
160 2 -0.4 -0.845203 2.79309 2.77688
3 4 0.2 -0.139577 2.56432 1.55989
8 4 0.2 1.16875 4.7054 1.27576
23 4 0.2 2.29714 1.26234 0.544058
26 4 0.2 3.66961 3.36913 0.802075
4 4 0.2 1.18411 3.27345 1.56782
21 4 0.2 1.08387 0.475684 0.872391
22 4 0.2 2.3735 2.64935 0.954826
24 4 0.2 3.53518 0.623898 0.0267045
150 2 -0.4 4.02911 0.108031 1.27745
151 3 0.2 4.9174 -0.25396 1.17786
154 2 -0.4 1.47626 -0.0173365 2.18727
155 3 0.2 2.43528 -0.0452821 2.28563
157 2 -0.4 1.57853 3.4064 2.95511
158 3 0.2 0.874805 3.05759 3.50953
163 2 -0.4 4.01672 3.92413 2.07594
168 2 -0.4 6.27434 -0.310062 -0.0872792
126 2 -0.4 9.95655 2.38916 -0.997796
36 1 0.014 8.22725 0.948161 -1.9249
40 4 0.2 9.42103 1.72604 -2.13366
127 2 -0.4 10.4885 1.38787 -3.00893
128 3 0.2 11.2184 1.94127 -2.72473
10 1 0.014 -3.64 7.49709 0.0237558
11 1 0.014 -2.54851 6.82114 0.646547
12 1 0.014 -1.36235 7.50019 1.01822
17 3 0.2 -3.54322 8.85337 -0.309043
18 3 0.2 -1.28539 8.89958 0.972758
116 1 0.014 -4.79121 6.74069 -0.386937
120 3 0.2 -5.80073 7.38897 -1.11836
13 1 0.014 -0.143776 6.79097 1.26573
14 4 0.2 1.10104 7.51058 1.36522
121 3 0.2 1.8124 9.34308 1.39514
122 3 0.2 4.6216 9.23214 2.02646
19 2 -0.4 0.934156 8.94245 1.41536
20 2 -0.4 3.72812 8.86582 2.03369
ITEM: TIMESTEP
3000
ITEM: NUMBER OF ATOMS
179
ITEM: BOX BOUNDS pp pp pp
-2.6348099999999999e+01 2.6348099999999999e+01
-2.5981400000000001e+01 2.4881399999999999e+01
-2.0000000000000000e+01 2.0000000000000000e+01
ITEM: ATOMS id type q x y z
177 2 -0.4 -0.0335769 -6.63148 -1.69128
56 1 0.014 4.57152 -6.82671 1.51114
60 3 0.2 5.60326 -7.50528 2.16474
130 2 -0.4 7.11449 -6.83121 2.21043
144 2 -0.4 -10.6541 -2.26899 0.509815
145 3 0.2 -11.5471 -2.10707 0.82024
96 1 0.014 -8.89077 -0.68047 0.234437
100 4 0.2 -10.0656 -1.08925 0.97634
94 1 0.014 -7.43119 -2.8907 0.654526
95 1 0.014 -7.62176 -1.48063 0.251862
99 4 0.2 -8.32241 -3.42589 1.61532
140 2 -0.4 -8.22526 -2.6751 2.78412
143 2 -0.4 -11.1377 -0.228262 1.43747
141 2 -0.4 -8.36023 -4.82528 1.89529
142 3 0.2 -8.71512 -5.01717 2.77305
98 3 0.2 -7.40387 -5.6928 0.367972
178 2 -0.4 -3.72587 -4.76043 -2.1118
179 3 0.2 -4.50776 -5.06123 -2.58222
87 1 0.014 -5.03925 -2.92144 -0.0124025
89 1 0.014 -6.37578 -0.799955 -0.0910837
161 2 -0.4 0.51417 -1.06005 -1.47343
174 3 0.2 1.37863 -5.43361 -2.38002
92 1 0.014 -6.20442 -5.0553 0.0159953
93 1 0.014 -6.23542 -3.64461 0.276022
153 2 -0.4 3.06567 -0.98043 -1.34713
166 2 -0.4 5.28646 -1.94721 -1.3767
167 3 0.2 4.68354 -1.59258 -2.04214
169 2 -0.4 4.36861 -4.95517 -0.79516
170 3 0.2 3.93054 -5.50588 -1.45195
173 2 -0.4 1.83788 -4.83543 -1.77819
42 4 0.2 3.6958 -0.672285 -0.0939548
43 4 0.2 2.42229 -1.37445 -0.143032
44 4 0.2 2.40394 -2.78551 0.0261793
46 4 0.2 4.97916 -1.39357 -0.0517138
49 4 0.2 3.64141 -4.84718 0.449867
62 1 0.014 1.20746 -3.56335 -0.256302
65 4 0.2 2.37449 -5.57122 0.192727
66 4 0.2 1.23965 -4.96623 -0.474596
45 4 0.2 6.23727 -0.651558 0.0597193
47 4 0.2 4.85964 -2.63991 0.706506
48 4 0.2 3.6027 -3.41086 0.505877
53 1 0.014 6.08512 -3.36567 0.928857
54 1 0.014 5.99134 -4.72081 1.40238
55 1 0.014 4.71199 -5.41437 1.2427
51 1 0.014 7.45373 -1.35962 0.273174
52 1 0.014 7.3437 -2.70975 0.707537
57 2 -0.4 9.85632 -1.51196 -0.0378457
58 3 0.2 8.54018 -3.40839 0.953338
59 4 0.2 7.15802 -5.47996 1.76889
131 2 -0.4 8.48856 -5.07306 1.53026
132 3 0.2 9.02113 -5.81757 1.82255
111 1 0.014 -7.61116 1.35046 -0.388434
110 1 0.014 -8.89684 0.670693 -0.32526
117 4 0.2 -10.0943 1.25936 -0.935191
118 3 0.2 -8.85575 3.36055 -0.471791
147 2 -0.4 -11.0069 0.412965 -1.59435
148 3 0.2 -11.5501 1.01667 -2.10274
112 1 0.014 -7.57545 2.78587 -0.394125
119 3 0.2 -7.45683 5.68175 -0.180923
146 2 -0.4 -10.1986 2.57924 -1.49408
156 2 -0.4 -0.636871 1.26749 -1.4512
105 1 0.014 -6.35797 0.631813 -0.302769
113 1 0.014 -6.35338 3.53785 -0.309318
114 1 0.014 -6.26063 4.95275 -0.23318
115 1 0.014 -5.01365 5.66774 -0.145479
149 2 -0.4 2.21369 2.09539 -1.40292
152 2 -0.4 4.79334 1.96743 -1.74088
28 4 0.2 4.9392 1.39393 -0.4385
33 1 0.014 6.23211 3.51371 -0.710672
29 4 0.2 6.24779 0.743343 -0.277294
168 2 -0.4 6.29415 0.323195 1.09082
50 4 0.2 8.68614 -0.67994 -0.0370058
34 1 0.014 7.45378 2.80057 -0.807533
35 1 0.014 7.52607 1.40025 -0.556554
39 3 0.2 8.66638 3.49991 -0.906491
129 3 0.2 10.5523 -1.02399 -0.49222
126 2 -0.4 10.1149 2.62641 -1.20935
36 1 0.014 8.78576 0.692883 -0.464202
40 4 0.2 10.0249 1.25728 -0.890132
127 2 -0.4 11.0898 0.460118 -1.37715
128 3 0.2 11.6832 1.11754 -1.75411
10 1 0.014 -3.73799 7.82235 0.0154395
17 3 0.2 -3.73746 9.22257 0.0518516
116 1 0.014 -4.9789 7.08914 0.0449543
120 3 0.2 -6.19713 7.777 0.168609
162 2 -0.4 2.75254 6.6912 -1.22537
139 3 0.2 -2.69002 -10.5878 -2.52217
74 4 0.2 -1.27813 -7.86881 -0.262622
75 1 0.014 -2.56489 -7.23049 -0.507244
76 1 0.014 -3.76763 -7.91964 -0.948039
79 2 -0.4 -1.3476 -9.1058 0.476994
80 4 0.2 -3.78198 -9.23544 -1.56679
97 3 0.2 -6.16346 -7.88957 -1.10974
138 2 -0.4 -2.5523 -9.88848 -1.87621
136 3 0.2 -0.479298 -9.50844 0.584901
90 1 0.014 -4.98396 -7.16936 -0.848607
73 4 0.2 -0.00810559 -7.18091 -0.382641
134 2 -0.4 1.64116 -9.96128 0.758324
135 3 0.2 2.09652 -10.7183 0.370413
71 4 0.2 2.35714 -6.98564 0.420073
72 1 0.014 1.26175 -7.7753 -0.0912176
78 4 0.2 1.3622 -9.16172 -0.385847
133 2 -0.4 2.50703 -9.54497 -1.13077
70 1 0.014 3.47864 -7.60232 1.02501
77 3 0.2 3.49109 -9.0086 1.06157
68 1 0.014 -1.29044 -5.06441 -0.379843
81 1 0.014 -1.36816 -0.759722 -0.327012
82 1 0.014 -2.55719 -2.92981 -0.24695
83 1 0.014 -2.60041 -1.49439 -0.329768
84 1 0.014 -3.85654 -0.790455 -0.396692
88 1 0.014 -5.0997 -1.49474 -0.18187
61 4 0.2 -0.109825 -1.46682 -0.284324
63 1 0.014 -0.0778357 -2.90871 -0.241256
67 4 0.2 -0.0158455 -5.74981 -0.55402
137 2 -0.4 -4.79675 -9.72397 -2.44716
64 4 0.2 -1.30175 -3.65221 -0.0720208
69 1 0.014 -2.5721 -5.77149 -0.476813
85 4 0.2 -3.80474 -5.0125 -0.668656
86 1 0.014 -3.79992 -3.63665 -0.261566
91 1 0.014 -5.02732 -5.74975 -0.517603
175 2 -0.4 -1.2241 -3.72125 1.37315
176 3 0.2 -0.806586 -4.54169 1.65706
41 4 0.2 1.14178 -0.729131 -0.233705
164 2 -0.4 4.81423 -2.11869 2.05539
165 3 0.2 4.0098 -2.41413 2.49456
171 2 -0.4 1.86304 -6.07742 1.40393
172 2 -0.4 2.54908 -3.00599 1.41146
101 4 0.2 -1.36361 0.696166 -0.353216
102 1 0.014 -3.86188 0.647298 -0.437043
106 1 0.014 -5.10863 1.37339 -0.387476
5 1 0.014 -2.53145 5.70288 -0.183489
6 1 0.014 -1.28643 4.97546 -0.195669
103 1 0.014 -2.62074 1.38451 -0.409207
104 1 0.014 -2.60459 2.82806 -0.318427
107 1 0.014 -5.10518 2.82245 -0.319852
108 1 0.014 -3.84021 3.53307 -0.286432
109 1 0.014 -3.78322 4.9596 -0.196311
1 4 0.2 -0.127285 1.42137 -0.136328
7 4 0.2 0.0116986 5.65402 -0.240766
2 4 0.2 -1.35759 3.54453 -0.116911
160 2 -0.4 -0.955263 3.14649 1.16956
3 4 0.2 -0.10298 2.8487 0.0536583
159 2 -0.4 0.664234 5.15686 -1.41594
9 4 0.2 2.59208 5.68537 -0.200943
25 4 0.2 3.84013 4.95536 -0.211824
27 4 0.2 4.95654 2.82293 -0.618831
31 1 0.014 5.10644 5.67048 -0.258454
32 1 0.014 6.27925 4.92224 -0.531968
8 4 0.2 1.28751 4.96005 -0.170421
23 4 0.2 2.37299 1.42948 -0.150334
26 4 0.2 3.73243 3.52606 -0.313523
4 4 0.2 1.19498 3.55315 0.171402
21 4 0.2 1.11562 0.698204 0.0254103
22 4 0.2 2.41907 2.86639 -0.220551
24 4 0.2 3.68127 0.774535 0.0439597
150 2 -0.4 3.8023 0.959411 1.49984
151 3 0.2 4.70205 0.76502 1.80264
154 2 -0.4 1.07561 0.624997 1.46058
155 3 0.2 1.91709 0.888436 1.85774
157 2 -0.4 1.46534 3.64421 1.60164
158 3 0.2 0.740039 3.26897 2.12722
163 2 -0.4 3.99352 4.15144 0.939512
38 3 0.2 7.49933 5.616 -0.523374
11 1 0.014 -2.47866 7.1388 -0.0580217
12 1 0.014 -1.17641 7.78757 0.0424214
18 3 0.2 -1.09652 9.18215 0.164607
13 1 0.014 0.0833708 7.0725 -0.0246711
124 2 -0.4 6.43575 9.02497 1.12192
15 4 0.2 2.62912 7.08866 0.135587
30 1 0.014 5.16947 7.05059 0.198655
37 4 0.2 6.37926 7.83 0.342848
16 4 0.2 3.89997 7.62826 0.544728
14 4 0.2 1.34576 7.67917 0.327381
121 3 0.2 2.16301 9.18979 1.23493
122 3 0.2 4.78698 8.82503 1.82003
19 2 -0.4 1.26298 8.92328 1.01152
20 2 -0.4 3.88033 8.58065 1.61111
125 3 0.2 7.36931 9.2068 1.23955
123 2 -0.4 7.65678 7.19623 0.36335
ITEM: TIMESTEP
4000
ITEM: NUMBER OF ATOMS
179
ITEM: BOX BOUNDS pp pp pp
-2.6348099999999999e+01 2.6348099999999999e+01
-2.5981400000000001e+01 2.4881399999999999e+01
-2.0000000000000000e+01 2.0000000000000000e+01
ITEM: ATOMS id type q x y z
139 3 0.2 -3.70562 -10.3678 -3.01815
74 4 0.2 -1.0568 -7.98672 -1.34909
75 1 0.014 -2.33854 -7.31972 -1.05694
76 1 0.014 -3.61871 -7.90326 -0.932847
80 4 0.2 -3.9448 -9.10457 -1.49629
97 3 0.2 -5.89482 -8.06001 -0.286349
138 2 -0.4 -3.32963 -9.55116 -2.69247
90 1 0.014 -4.75193 -7.24061 -0.386328
73 4 0.2 0.164676 -7.23271 -1.43477
137 2 -0.4 -4.99803 -9.76291 -0.918076
72 1 0.014 1.51991 -7.75031 -1.60683
78 4 0.2 1.69723 -8.42078 -2.83481
133 2 -0.4 2.86433 -8.07853 -3.61865
177 2 -0.4 -0.272894 -6.36086 -2.49546
178 2 -0.4 -3.9028 -5.01212 -2.12425
179 3 0.2 -4.84729 -5.00308 -2.31798
87 1 0.014 -4.70602 -2.98308 -0.093337
89 1 0.014 -5.69814 -0.762939 0.527757
68 1 0.014 -1.16459 -5.12949 -0.943489
81 1 0.014 -1.32107 -0.84847 -1.32907
82 1 0.014 -2.39224 -3.01467 -0.75908
83 1 0.014 -2.49626 -1.59459 -1.05441
84 1 0.014 -3.6895 -0.837204 -0.807419
88 1 0.014 -4.73606 -1.53922 -0.21114
61 4 0.2 -0.0762711 -1.51227 -1.07345
63 1 0.014 -0.0253836 -2.96398 -0.971789
67 4 0.2 0.0774273 -5.8013 -1.22837
64 4 0.2 -1.18057 -3.73274 -0.659968
69 1 0.014 -2.39718 -5.88317 -0.878233
85 4 0.2 -3.64141 -5.13084 -0.721534
86 1 0.014 -3.58252 -3.71811 -0.538617
91 1 0.014 -4.79736 -5.82018 -0.180438
161 2 -0.4 0.920108 -0.97955 -1.96333
174 3 0.2 1.42192 -5.57059 -3.08053
153 2 -0.4 3.20148 -0.953507 -0.888192
166 2 -0.4 5.50745 -1.36901 -0.30029
167 3 0.2 5.05489 -1.79513 -1.04014
169 2 -0.4 4.22677 -4.20518 -1.21458
170 3 0.2 3.97842 -4.74988 -1.97223
173 2 -0.4 1.777 -4.82491 -2.56898
42 4 0.2 3.35043 -0.693933 0.510034
43 4 0.2 2.19881 -1.40098 -0.00865052
44 4 0.2 2.22614 -2.82482 -0.058907
62 1 0.014 1.2285 -3.59413 -0.778809
66 4 0.2 1.32021 -4.9895 -1.16543
41 4 0.2 1.03867 -0.729024 -0.554799
57 2 -0.4 7.89538 -1.04891 4.42088
129 3 0.2 8.12611 -0.314767 4.996
111 1 0.014 -6.66693 1.46293 1.32616
110 1 0.014 -7.39173 0.789045 2.38602
117 4 0.2 -7.73723 1.5147 3.58895
118 3 0.2 -7.51436 3.5767 2.13804
147 2 -0.4 -9.05968 1.93502 3.72949
148 3 0.2 -9.01487 2.42383 4.55643
112 1 0.014 -6.68845 2.91113 1.21736
119 3 0.2 -6.84268 5.6998 0.777061
146 2 -0.4 -6.80978 2.49239 4.08325
156 2 -0.4 -0.449766 1.16933 -2.27347
105 1 0.014 -5.78227 0.675865 0.474149
113 1 0.014 -5.83708 3.56495 0.262627
114 1 0.014 -5.83915 4.97851 0.115007
115 1 0.014 -4.81692 5.6844 -0.563844
101 4 0.2 -1.39877 0.589619 -1.37425
102 1 0.014 -3.78336 0.603277 -0.944598
106 1 0.014 -4.84018 1.3642 -0.338485
5 1 0.014 -2.53331 5.63058 -1.29175
6 1 0.014 -1.37962 4.82223 -1.39974
103 1 0.014 -2.65575 1.29795 -1.45711
104 1 0.014 -2.70527 2.73603 -1.54131