ITEM: TIMESTEP
0
ITEM: NUMBER OF ATOMS
202
ITEM: BOX BOUNDS pp pp pp
-2.4509499999999999e+01 2.6348099999999999e+01
-2.5981400000000001e+01 2.5981400000000001e+01
-2.0000000000000000e+01 2.0000000000000000e+01
ITEM: ATOMS id type q x y z
145 2 -0.4 -7.06869 -7.34378 -1.62936
97 4 0.2 -6.17382 -7.95842 -0.72183
146 2 -0.4 -5.98276 -9.31839 -1.08317
147 3 0.2 -6.75428 -9.52692 -1.61823
73 1 0.0444 -0.0537591 -7.2438 -0.361446
74 1 0.0444 -1.33427 -7.87741 -0.484031
75 4 0.2 -2.55316 -7.16542 -0.443478
76 1 0.0444 -3.78399 -7.85663 -0.463617
79 3 0.2 -1.37782 -9.27503 -0.567686
80 3 0.2 -3.83267 -9.24727 -0.629507
90 1 0.0444 -5.03363 -7.17762 -0.388131
142 2 -0.4 0.0202366 -10.2298 -0.261421
143 2 -0.4 2.32703 -10.2452 -0.626543
144 3 0.2 2.01369 -11.1526 -0.566976
56 1 0.0444 4.91908 -7.21286 -0.171546
70 1 0.0444 3.67599 -7.87089 -0.334539
71 1 0.0444 2.41934 -7.21464 -0.467115
72 1 0.0444 1.18667 -7.99542 -0.441454
77 3 0.2 3.71951 -9.26338 -0.158686
78 4 0.2 1.17692 -9.43997 -0.482447
138 3 0.2 7.38591 -6.59822 -0.247834
153 2 -0.4 -2.5428 -6.29619 -1.55963
155 2 -0.4 -1.81813 -3.29768 -1.36375
163 2 -0.4 -5.34621 -2.1308 -1.115
184 2 -0.4 -3.20372 -0.901205 -1.34286
64 4 0.2 -1.26459 -3.62756 -0.0987231
67 4 0.2 -0.0361895 -5.81666 -0.0985039
68 1 0.0444 -1.27208 -5.06751 -0.0873377
69 4 0.2 -2.542 -5.74563 -0.254508
81 4 0.2 -1.24292 -0.740793 -0.115167
82 4 0.2 -2.51987 -2.8843 -0.196738
83 4 0.2 -2.50732 -1.43695 -0.219968
84 4 0.2 -3.73551 -0.693476 -0.0342799
85 4 0.2 -3.79861 -5.03982 -0.0649812
86 4 0.2 -3.78709 -3.59354 -0.0467539
91 1 0.0444 -5.06503 -5.76088 -0.0603678
180 2 -0.4 1.72269 -1.08706 -1.3217
188 2 -0.4 4.38598 -0.935216 -1.47281
192 2 -0.4 1.99726 -5.59421 -1.9076
193 3 0.2 2.7846 -5.62516 -2.46778
194 2 -0.4 4.4548 -5.434 -1.60749
195 2 -0.4 6.37732 -3.53218 -1.96093
196 3 0.2 7.08824 -4.12962 -2.21679
41 4 0.2 1.2385 -0.741612 -0.0327231
42 4 0.2 3.75904 -0.722362 -0.210544
43 4 0.2 2.49457 -1.45097 -0.186532
44 1 0.0444 2.49363 -2.90289 -0.137115
45 1 0.0444 6.27598 -0.688823 -0.183429
46 4 0.2 5.01519 -1.4212 -0.306872
47 1 0.0444 5.00021 -2.86962 -0.391896
48 4 0.2 3.76197 -3.61606 -0.142071
49 4 0.2 3.72413 -5.06092 -0.433321
53 4 0.2 6.2529 -3.5752 -0.529154
54 4 0.2 6.217 -4.99678 -0.282336
55 4 0.2 5.00051 -5.78154 -0.34568
65 4 0.2 2.40905 -5.75004 -0.517308
66 4 0.2 1.21691 -5.07966 -0.0107041
135 2 -0.4 10.1912 -2.59713 -0.497724
201 2 -0.4 7.71113 -1.22219 -1.72234
202 3 0.2 8.59768 -1.52413 -1.95104
51 4 0.2 7.54693 -1.38108 -0.306618
52 4 0.2 7.40387 -2.81391 -0.11918
59 2 -0.4 7.48961 -5.65584 -0.401868
164 2 -0.4 -6.47181 3.45232 -1.36657
165 3 0.2 -5.73629 3.82168 -1.87233
157 2 -0.4 -0.937743 0.620307 -1.79818
158 3 0.2 -1.29407 1.40309 -2.23556
162 2 -0.4 -2.81726 2.18431 -1.31633
175 2 -0.4 -0.500745 3.36223 -1.34733
181 2 -0.4 -3.68704 5.00558 -1.64437
182 3 0.2 -3.04684 4.35693 -1.96704
1 4 0.2 0.0191425 1.4532 -0.0745826
2 4 0.2 -1.2107 3.6263 -0.144847
3 4 0.2 0.0535561 2.90957 -0.10777
101 4 0.2 -1.18969 0.697554 -0.367799
103 4 0.2 -2.44748 1.44686 -0.14983
104 4 0.2 -2.47601 2.8985 -0.131305
109 4 0.2 -3.73156 5.04429 -0.203033
115 1 0.0444 -4.99989 5.72885 -0.0611055
170 2 -0.4 2.37297 2.74556 -1.70556
171 3 0.2 2.48831 3.61174 -2.12015
174 2 -0.4 1.56197 5.35208 -1.43144
178 2 -0.4 4.07701 4.96655 -1.88301
179 3 0.2 5.01571 5.0913 -2.06566
8 4 0.2 1.28015 5.06983 -0.0766217
9 4 0.2 2.50497 5.76802 -0.423993
22 4 0.2 2.53059 2.84655 -0.270592
24 4 0.2 3.77242 0.70932 -0.0143286
25 4 0.2 3.7986 5.05058 -0.462921
26 4 0.2 3.77265 3.60785 -0.172986
31 1 0.0444 5.00339 5.77422 -0.0636876
33 1 0.0444 6.26095 3.60847 -0.0226758
128 2 -0.4 8.32117 3.7905 -2.11976
34 1 0.0444 7.49721 2.88543 -0.138466
39 4 0.2 8.63263 3.48321 -0.76894
129 2 -0.4 8.97469 4.77814 -0.308825
130 3 0.2 9.40054 5.19078 -1.06402
152 3 0.2 -6.0663 8.77964 -0.377941
120 2 -0.4 -6.23191 7.83712 -0.272352
122 2 -0.4 -0.365273 8.90417 -2.23967
123 3 0.2 -0.652357 9.58283 -2.85685
10 1 0.0444 -3.78066 7.87881 -0.28371
11 4 0.2 -2.5143 7.23016 -0.0788901
12 1 0.0444 -1.22935 7.89625 -0.270844
17 3 0.2 -3.79372 9.22585 -0.668428
18 4 0.2 -1.17008 9.07516 -1.0927
116 4 0.2 -4.99075 7.14734 -0.171005
121 2 -0.4 -2.33402 9.75099 -1.54093
172 2 -0.4 2.71982 7.67019 -1.75779
173 3 0.2 2.64237 6.91729 -2.35482
14 4 0.2 1.31072 7.91937 -0.103401
15 4 0.2 2.53184 7.22227 -0.403212
139 2 -0.4 5.65792 -9.45087 0.557447
60 4 0.2 5.94434 -8.0789 0.308584
140 2 -0.4 6.76449 -7.58574 1.34399
141 3 0.2 7.15402 -8.36705 1.74549
150 3 0.2 -8.99575 -6.18282 1.36896
149 2 -0.4 -8.38936 -6.09073 0.630165
151 3 0.2 -8.70108 -4.32562 0.404707
89 4 0.2 -6.20065 -0.701239 0.483345
92 1 0.0444 -6.26135 -5.05621 0.373581
93 1 0.0444 -6.29182 -3.60727 0.309917
94 4 0.2 -7.47837 -2.80009 0.487869
95 1 0.0444 -7.4663 -1.38266 0.58818
96 1 0.0444 -8.66563 -0.651007 0.833412
98 4 0.2 -7.14481 -5.79219 1.22096
99 2 -0.4 -8.78758 -3.36677 0.470032
100 3 0.2 -9.85242 -1.39072 0.96655
148 2 -0.4 -7.51611 -5.12213 2.41682
167 2 -0.4 -6.02216 -0.0970711 1.75128
61 4 0.2 -0.00995094 -1.47394 0.0350368
63 1 0.0444 -0.00358636 -2.9209 0.0117218
87 4 0.2 -5.05448 -2.88167 0.0469579
88 4 0.2 -5.00807 -1.42139 0.0858382
154 2 -0.4 -3.6869 -4.32557 1.16718
156 2 -0.4 -0.786752 -1.11672 1.17665
189 2 -0.4 0.636433 -5.71797 1.14073
62 4 0.2 1.25817 -3.62154 0.179853
190 2 -0.4 3.95502 -3.72174 1.28555
191 3 0.2 3.19925 -3.38713 1.78161
197 2 -0.4 1.30327 -3.3609 1.6068
198 3 0.2 1.01381 -4.14534 2.08867
136 3 0.2 10.7694 -3.13381 0.0503492
137 3 0.2 8.48508 -2.62551 1.53021
50 1 0.0444 8.76499 -0.71562 0.119183
57 4 0.2 10.0131 -1.40839 0.25092
58 2 -0.4 7.77393 -3.20081 1.21885
134 2 -0.4 10.2862 -1.75103 1.59803
105 4 0.2 -6.15225 0.741119 0.6105
110 1 0.0444 -8.64762 0.770267 0.874513
111 1 0.0444 -7.41156 1.4681 0.689222
112 1 0.0444 -7.42323 2.88001 0.445594
113 4 0.2 -6.2323 3.56343 0.0375217
114 1 0.0444 -6.21441 4.99165 0.0523139
117 3 0.2 -9.86045 1.45961 1.01141
118 3 0.2 -8.63734 3.5773 0.420496
119 3 0.2 -7.40667 5.72787 0.0480086
5 4 0.2 -2.49131 5.77846 0.0572904
6 4 0.2 -1.21655 5.05791 0.102394
7 4 0.2 0.0336618 5.80639 0.182172
102 4 0.2 -3.64039 0.725774 0.333971
106 4 0.2 -4.90689 1.4704 0.465239
107 4 0.2 -4.94974 2.89847 0.202613
108 1 0.0444 -3.70842 3.62623 0.0233405
159 2 -0.4 0.500583 1.12269 1.21338
160 2 -0.4 -3.22224 0.497827 1.7034
161 3 0.2 -3.88242 0.843538 2.31757
166 2 -0.4 -4.85736 2.44626 1.53049
187 2 -0.4 -0.574877 5.24186 1.35425
4 4 0.2 1.33269 3.61517 0.107582
21 4 0.2 1.249 0.710579 0.0610216
23 4 0.2 2.51289 1.40933 0.0158064
27 4 0.2 5.01863 2.89152 0.0239192
28 1 0.0444 5.02259 1.44293 0.0121008
29 4 0.2 6.27017 0.725502 0.164276
32 1 0.0444 6.22866 5.03946 0.0306532
168 2 -0.4 1.44669 3.58783 1.55139
169 3 0.2 1.85663 2.7662 1.85563
176 2 -0.4 4.27634 3.40343 1.13779
177 2 -0.4 3.14882 1.01246 1.22636
199 2 -0.4 6.17146 0.502858 1.58342
200 3 0.2 6.94782 0.858568 2.03185
132 2 -0.4 11.022 1.44793 0.219824
133 3 0.2 11.5136 2.16363 0.629143
38 3 0.2 7.44292 5.72894 0.208091
35 1 0.0444 7.5211 1.45546 0.110034
36 1 0.0444 8.74365 0.711728 0.361465
40 4 0.2 9.86068 1.3228 1.01577
131 2 -0.4 9.66153 2.48752 1.80311
183 2 -0.4 -2.66731 6.62291 1.19744
13 4 0.2 0.0326018 7.28667 0.183227
185 2 -0.4 -0.135166 7.73403 1.54851
186 3 0.2 -0.701686 7.1063 2.01341
124 3 0.2 0.591571 9.68136 0.444181
126 2 -0.4 5.86492 9.37381 0.919031
127 3 0.2 6.73076 9.66698 1.21772
16 1 0.0444 3.71913 7.85094 0.0483284
19 2 -0.4 1.44246 9.34251 0.153471
20 3 0.2 3.68818 9.23623 0.255931
30 1 0.0444 4.95907 7.1854 0.197255
37 4 0.2 6.05018 8.00693 0.592667
125 2 -0.4 7.32973 7.48096 0.876458
ITEM: TIMESTEP
1000
ITEM: NUMBER OF ATOMS
202
ITEM: BOX BOUNDS pp pp pp
-2.4509499999999999e+01 2.6348099999999999e+01
-2.5981400000000001e+01 2.5981400000000001e+01
-2.0000000000000000e+01 2.0000000000000000e+01
ITEM: ATOMS id type q x y z
145 2 -0.4 -7.26676 -7.07439 -1.71146
97 4 0.2 -6.1844 -7.79112 -1.14467
146 2 -0.4 -6.0567 -9.09539 -1.69615
147 3 0.2 -6.92118 -9.26417 -2.08582
73 1 0.0444 -0.0413901 -7.02459 -1.26057
74 1 0.0444 -1.31168 -7.61333 -1.60583
75 4 0.2 -2.5474 -6.97312 -1.2846
76 1 0.0444 -3.79239 -7.64183 -1.31551
79 3 0.2 -1.29554 -8.89712 -2.1677
80 3 0.2 -3.88413 -8.96361 -1.77387
90 1 0.0444 -5.01552 -7.03191 -0.880379
142 2 -0.4 0.486471 -8.84471 -3.45866
143 2 -0.4 2.58248 -9.38561 -2.62505
144 3 0.2 2.46212 -9.79292 -3.48808
56 1 0.0444 4.59737 -7.24888 0.395955
70 1 0.0444 3.46698 -7.87274 -0.244343
71 1 0.0444 2.40354 -7.12329 -0.845875
72 1 0.0444 1.21744 -7.72939 -1.43458
77 3 0.2 3.35663 -9.26515 -0.118727
78 4 0.2 1.30145 -8.88051 -2.28498
138 3 0.2 6.97828 -6.57361 1.31469
153 2 -0.4 -2.65441 -5.85572 -2.1429
155 2 -0.4 -1.89116 -3.10014 -1.50262
163 2 -0.4 -5.46957 -2.03261 -0.647177
184 2 -0.4 -3.3422 -0.841735 -1.12272
64 4 0.2 -1.25758 -3.58142 -0.330674
67 4 0.2 -0.0427535 -5.71447 -0.64544
68 1 0.0444 -1.27321 -4.99727 -0.520043
69 4 0.2 -2.53778 -5.64851 -0.743632
81 4 0.2 -1.22532 -0.737921 -0.104175
82 4 0.2 -2.50775 -2.84203 -0.243312
83 4 0.2 -2.49875 -1.41775 -0.128219
84 4 0.2 -3.68431 -0.692303 0.256318
85 4 0.2 -3.75724 -4.99805 -0.279906
86 4 0.2 -3.74533 -3.57678 -0.0256387
91 1 0.0444 -5.01608 -5.71215 -0.257403
180 2 -0.4 1.84257 -1.09683 -1.31645
188 2 -0.4 4.51253 -1.09582 -1.23917
192 2 -0.4 2.34416 -5.24114 -2.05426
193 3 0.2 3.20502 -5.38099 -2.47158
194 2 -0.4 4.65884 -5.52625 -1.2009
195 2 -0.4 6.407 -3.68779 -1.38628
196 3 0.2 7.05379 -3.03731 -1.67588
41 4 0.2 1.26949 -0.739311 -0.0680651
42 4 0.2 3.78986 -0.740481 -0.0647092
43 4 0.2 2.52217 -1.45949 -0.119677
44 1 0.0444 2.49515 -2.90739 -0.0408939
45 1 0.0444 6.29899 -0.700082 0.151229
46 4 0.2 5.04126 -1.44488 0.0203836
47 1 0.0444 5.02773 -2.89979 0.039094
48 4 0.2 3.74933 -3.62793 0.109758
49 4 0.2 3.71043 -5.06583 -0.233553
53 4 0.2 6.28258 -3.62789 0.0526529
54 4 0.2 6.09602 -5.03569 0.432942
55 4 0.2 4.89245 -5.83299 0.153985
65 4 0.2 2.44294 -5.67932 -0.670307
66 4 0.2 1.19918 -5.04839 -0.29754
135 2 -0.4 10.2432 -2.58951 -0.111539
201 2 -0.4 7.65776 -1.30779 -1.30712
202 3 0.2 8.4586 -1.76536 -1.59185
51 4 0.2 7.56563 -1.39809 0.119702
52 4 0.2 7.41909 -2.81101 0.440548
59 2 -0.4 7.20026 -5.66875 1.07695
164 2 -0.4 -6.69897 3.21428 -0.826685
165 3 0.2 -6.07183 3.53636 -1.48848
157 2 -0.4 -1.02138 0.604028 -1.79102
158 3 0.2 -1.41976 1.37719 -2.20902
162 2 -0.4 -2.91194 2.0996 -1.1747
175 2 -0.4 -0.567295 3.28499 -1.40785
181 2 -0.4 -3.86325 4.76562 -1.6351
182 3 0.2 -3.28053 4.05576 -1.93592
1 4 0.2 0.0338946 1.43443 -0.110924
2 4 0.2 -1.22515 3.59373 -0.186914
3 4 0.2 0.0460944 2.8851 -0.176229
101 4 0.2 -1.18463 0.686065 -0.344651
103 4 0.2 -2.42165 1.42555 -0.0161326
104 4 0.2 -2.47835 2.86259 -0.0550153
109 4 0.2 -3.78772 4.94986 -0.204334
115 1 0.0444 -5.05451 5.62877 -0.030191
170 2 -0.4 2.36271 2.66346 -1.79791
171 3 0.2 2.40024 3.52133 -2.24542
174 2 -0.4 1.53648 5.23582 -1.63301
178 2 -0.4 4.0828 4.9028 -2.05259
179 3 0.2 5.01978 5.05939 -2.22439
8 4 0.2 1.25299 5.04004 -0.265418
9 4 0.2 2.47189 5.72401 -0.65293
22 4 0.2 2.53304 2.82346 -0.367492
24 4 0.2 3.80365 0.702589 0.0150398
25 4 0.2 3.77592 5.02107 -0.643015
26 4 0.2 3.77207 3.59004 -0.299747
31 1 0.0444 4.95732 5.77237 -0.232467
33 1 0.0444 6.26318 3.62132 -0.0831211
128 2 -0.4 8.61154 2.92197 -2.21407
34 1 0.0444 7.50785 2.90168 -0.187654
39 4 0.2 8.59861 3.48362 -0.910933
129 2 -0.4 8.73077 4.89875 -1.05857
130 3 0.2 9.25377 5.00956 -1.85877
152 3 0.2 -6.20345 8.57987 -0.740282
120 2 -0.4 -6.33804 7.66587 -0.471121
122 2 -0.4 -0.386454 8.64125 -2.81123
123 3 0.2 -0.698735 9.21222 -3.51855
10 1 0.0444 -3.8827 7.73188 -0.675724
11 4 0.2 -2.59041 7.13867 -0.438594
12 1 0.0444 -1.3136 7.77479 -0.766951
17 3 0.2 -3.93576 8.99525 -1.27923
18 4 0.2 -1.29928 8.82472 -1.74997
116 4 0.2 -5.07663 7.0149 -0.366099
121 2 -0.4 -2.49122 9.34472 -2.31961
172 2 -0.4 2.78419 7.49761 -2.11815
173 3 0.2 2.72077 6.69986 -2.65813
14 4 0.2 1.23555 7.87672 -0.595682
15 4 0.2 2.48574 7.17445 -0.746153
139 2 -0.4 4.76961 -9.38348 1.6459
60 4 0.2 5.28534 -8.09329 1.32092
140 2 -0.4 5.82471 -7.49631 2.47928
141 3 0.2 5.98821 -8.22187 3.08947
150 3 0.2 -8.7744 -6.34956 1.56676
149 2 -0.4 -8.29017 -6.00507 0.812112
151 3 0.2 -8.37414 -4.42821 1.684
89 4 0.2 -6.02811 -0.748938 1.15988
92 1 0.0444 -6.12576 -5.10568 0.486813
93 1 0.0444 -6.15476 -3.664 0.739463
94 4 0.2 -7.24623 -2.8847 1.31329
95 1 0.0444 -7.23356 -1.46471 1.49296
96 1 0.0444 -8.37008 -0.741252 1.98007
98 4 0.2 -6.93396 -6.03021 1.20084
99 2 -0.4 -8.46075 -3.47085 1.77063
100 3 0.2 -9.49818 -1.49367 2.34843
148 2 -0.4 -6.97557 -5.76466 2.59445
167 2 -0.4 -5.64979 -0.116531 2.37137
61 4 0.2 0.0179783 -1.46226 -0.0472419
63 1 0.0444 0.000575684 -2.89759 -0.157526
87 4 0.2 -4.97726 -2.89168 0.360443
88 4 0.2 -4.91866 -1.43958 0.534145
154 2 -0.4 -3.49536 -4.49535 1.03253
156 2 -0.4 -0.694622 -1.16516 1.14515
189 2 -0.4 0.489174 -5.85313 0.658292
62 4 0.2 1.22628 -3.62874 0.0663527
190 2 -0.4 3.7395 -3.77185 1.55066
191 3 0.2 2.84826 -3.88408 1.8967
197 2 -0.4 1.07891 -3.56221 1.50429
198 3 0.2 0.658425 -4.37192 1.82069
136 3 0.2 10.8602 -3.10194 0.418469
137 3 0.2 8.47858 -2.42173 2.06546
50 1 0.0444 8.81056 -0.6983 0.436062
57 4 0.2 10.0493 -1.40325 0.638173
58 2 -0.4 7.76944 -3.02597 1.81557
134 2 -0.4 10.3432 -1.77191 1.9866
105 4 0.2 -5.98804 0.698619 1.2555
110 1 0.0444 -8.3808 0.687218 1.98243
111 1 0.0444 -7.23033 1.40998 1.51637
112 1 0.0444 -7.31564 2.80675 1.16301
113 4 0.2 -6.22484 3.47387 0.497211
114 1 0.0444 -6.23052 4.89741 0.330514
117 3 0.2 -9.56408 1.35212 2.32419
118 3 0.2 -8.5408 3.47736 1.28849
119 3 0.2 -7.43784 5.61135 0.347356
5 4 0.2 -2.54148 5.71977 -0.112369
6 4 0.2 -1.24625 5.03097 -0.0407462
7 4 0.2 0.000239488 5.78735 -0.0624996
102 4 0.2 -3.54562 0.716596 0.620638
106 4 0.2 -4.79915 1.44209 0.888076
107 4 0.2 -4.91183 2.84391 0.537796
108 1 0.0444 -3.71291 3.5692 0.16343
159 2 -0.4 0.531782 1.11613 1.17324
160 2 -0.4 -2.97133 0.508355 1.93301
161 3 0.2 -3.6065 0.746864 2.62118
166 2 -0.4 -4.62882 2.48728 1.86954
187 2 -0.4 -0.575586 5.33133 1.17314
4 4 0.2 1.32386 3.59742 -0.0109346
21 4 0.2 1.27513 0.706518 0.0180103
23 4 0.2 2.53934 1.40082 -0.0264351
27 4 0.2 5.02609 2.89467 -0.036436
28 1 0.0444 5.05212 1.4445 0.0406991
29 4 0.2 6.30723 0.748935 0.286521
32 1 0.0444 6.19308 5.05404 -0.0805348
168 2 -0.4 1.42102 3.62184 1.43538
169 3 0.2 1.98486 2.90752 1.76333
176 2 -0.4 4.24914 3.45364 1.03139
177 2 -0.4 3.15315 1.06963 1.21762
199 2 -0.4 6.21646 0.674625 1.71412
200 3 0.2 7.04049 0.977487 2.11493
132 2 -0.4 11.3104 1.01092 1.06254
133 3 0.2 11.7272 1.69801 1.58618
38 3 0.2 7.39365 5.76927 0.0873097
35 1 0.0444 7.57172 1.4743 0.148315
36 1 0.0444 8.83388 0.760436 0.427437
40 4 0.2 10.0144 1.52758 0.78567
131 2 -0.4 9.81617 2.615 1.67237
183 2 -0.4 -2.67957 6.70307 0.911607
13 4 0.2 -0.0337243 7.25762 -0.241175
185 2 -0.4 -0.210216 7.85172 1.06335
186 3 0.2 -0.775421 7.27288 1.59071
124 3 0.2 0.46445 9.67355 -0.294541
126 2 -0.4 5.73001 9.33867 0.885891
127 3 0.2 6.55929 9.59652 1.30001
16 1 0.0444 3.63911 7.84349 -0.251825
19 2 -0.4 1.33424 9.32201 -0.508306
20 3 0.2 3.57045 9.23259 -0.0831264
30 1 0.0444 4.87744 7.18992 0.00152883
37 4 0.2 5.95128 8.00325 0.468227
125 2 -0.4 7.15927 7.44467 0.949918
ITEM: TIMESTEP
2000
ITEM: NUMBER OF ATOMS
202
ITEM: BOX BOUNDS pp pp pp
-2.4509499999999999e+01 2.6348099999999999e+01
-2.5981400000000001e+01 2.5981400000000001e+01
-2.0000000000000000e+01 2.0000000000000000e+01
ITEM: ATOMS id type q x y z
145 2 -0.4 -6.11902 -4.89844 -3.09296
97 4 0.2 -5.52221 -6.17408 -3.00825
146 2 -0.4 -4.76248 -6.14775 -4.20987
147 3 0.2 -5.1508 -5.43903 -4.7278
73 1 0.0444 0.217695 -7.02085 -1.15654
74 1 0.0444 -1.04937 -7.53646 -1.69011
75 4 0.2 -2.31639 -6.82896 -1.58285
76 1 0.0444 -3.60681 -7.29803 -2.00335
79 3 0.2 -1.01067 -8.83676 -2.21345
80 3 0.2 -3.64633 -8.30072 -2.9814
90 1 0.0444 -4.78753 -6.48055 -1.81526
142 2 -0.4 0.585691 -9.84072 -1.8518
143 2 -0.4 1.21607 -8.50233 -3.44843
144 3 0.2 0.95868 -9.31226 -3.8956
70 1 0.0444 4.06525 -7.76847 -0.999681
71 1 0.0444 2.76712 -7.09724 -0.951018
72 1 0.0444 1.50236 -7.72346 -1.31023
77 3 0.2 4.15088 -9.09267 -1.4556
78 4 0.2 1.58759 -8.8777 -2.12634
163 2 -0.4 -5.38594 -1.87922 -0.529295
153 2 -0.4 -2.13731 -5.62887 -2.30745
155 2 -0.4 -1.67421 -2.97654 -1.45634
184 2 -0.4 -3.24823 -0.780606 -0.938133
64 4 0.2 -1.09827 -3.56641 -0.279087
67 4 0.2 0.202914 -5.71501 -0.532244
68 1 0.0444 -1.05852 -4.98167 -0.485748
69 4 0.2 -2.30643 -5.57161 -0.893621
81 4 0.2 -1.11158 -0.745493 0.0274477
82 4 0.2 -2.35601 -2.82653 -0.216281
83 4 0.2 -2.37004 -1.42197 -0.0122489
85 4 0.2 -3.5747 -4.93606 -0.477618
86 4 0.2 -3.60988 -3.54578 -0.108961
91 1 0.0444 -4.84858 -5.56159 -0.700585
61 4 0.2 0.119533 -1.48073 0.064931
63 1 0.0444 0.135665 -2.90996 -0.0052695
180 2 -0.4 1.74045 -1.27168 -1.40156
188 2 -0.4 4.71198 -1.26652 -1.40002
192 2 -0.4 2.57036 -5.25793 -2.02594
193 3 0.2 3.45034 -5.25443 -2.42649
194 2 -0.4 4.90915 -5.09809 -1.37481
195 2 -0.4 7.0501 -3.19747 -1.03051
196 3 0.2 6.9568 -3.99075 -1.57102
41 4 0.2 1.3429 -0.785693 -0.126965
43 4 0.2 2.59426 -1.5158 -0.280502
49 4 0.2 3.99904 -5.02591 -0.264645
65 4 0.2 2.72249 -5.67109 -0.648152
66 4 0.2 1.45257 -5.04703 -0.209221
201 2 -0.4 8.50388 -1.07415 0.332015
202 3 0.2 8.92752 -0.227699 0.504898
164 2 -0.4 -6.59274 3.53295 0.715718
165 3 0.2 -6.06092 3.86712 -0.0196549
157 2 -0.4 -1.19294 0.589955 -1.65581
158 3 0.2 -1.7111 1.32291 -2.00823
162 2 -0.4 -2.97606 2.13498 -0.685702
175 2 -0.4 -0.735871 3.27466 -1.37989
181 2 -0.4 -4.08912 4.89613 -0.514478
182 3 0.2 -3.39722 4.87498 -1.18964
1 4 0.2 0.0874438 1.41035 -0.18492
2 4 0.2 -1.13446 3.57816 -0.0346044
3 4 0.2 0.096122 2.85336 -0.296836
101 4 0.2 -1.12668 0.672686 -0.210138
104 4 0.2 -2.32811 2.84039 0.368881
109 4 0.2 -3.53326 4.95444 0.812096
5 4 0.2 -2.30556 5.71687 0.547818
6 4 0.2 -1.07828 5.01685 0.154398
7 4 0.2 0.128938 5.73612 -0.274361
170 2 -0.4 2.02944 2.4279 -2.32537
171 3 0.2 2.26601 3.17073 -2.89277
174 2 -0.4 1.27034 5.03483 -2.17492
178 2 -0.4 3.61098 4.45029 -3.04132
179 3 0.2 4.35378 4.8458 -3.51673
8 4 0.2 1.28783 4.95171 -0.764567
9 4 0.2 2.39757 5.56353 -1.47349
22 4 0.2 2.47835 2.68568 -0.977858
25 4 0.2 3.66409 4.76823 -1.62927
26 4 0.2 3.72453 3.40777 -1.11939
31 1 0.0444 4.90186 5.51758 -1.55709
33 1 0.0444 6.20864 3.5722 -0.537846
4 4 0.2 1.38411 3.526 -0.443831
23 4 0.2 2.526 1.31751 -0.49877
27 4 0.2 5.01039 2.80337 -0.749482
32 1 0.0444 6.12248 4.94181 -1.00237
128 2 -0.4 9.76162 3.3537 0.790823
34 1 0.0444 7.35145 3.00018 0.203893
39 4 0.2 8.46915 3.83971 0.517272
129 2 -0.4 8.38429 5.24508 0.597328
130 3 0.2 9.28549 5.50577 0.79679
38 3 0.2 7.26079 5.75055 -0.863236
152 3 0.2 -5.72754 8.68144 1.78288
120 2 -0.4 -5.83282 7.73443 1.91904
122 2 -0.4 -2.12716 6.72429 -2.59531
123 3 0.2 -2.79092 6.95134 -3.25409
10 1 0.0444 -3.69842 7.77436 0.612308
11 4 0.2 -2.43939 7.13635 0.290364
12 1 0.0444 -1.36146 7.66245 -0.579554
17 3 0.2 -3.90815 9.08862 0.18122
18 4 0.2 -1.85097 7.94278 -1.89871
116 4 0.2 -4.72402 7.04052 1.3246
121 2 -0.4 -3.04758 8.71435 -2.01328
13 4 0.2 0.0502741 7.1903 -0.498338
124 3 0.2 0.490697 9.55597 -0.93096
172 2 -0.4 2.14434 7.29823 -3.12789
173 3 0.2 1.50573 6.67231 -3.48492
14 4 0.2 1.18857 7.73389 -1.25955
15 4 0.2 2.38299 7.00336 -1.74327
16 1 0.0444 3.66537 7.58322 -2.02843
19 2 -0.4 1.23548 9.17387 -1.4
20 3 0.2 3.54509 8.75631 -2.78007
30 1 0.0444 4.8818 6.80943 -2.15285
56 1 0.0444 5.31159 -7.14723 -0.60011
138 3 0.2 7.7109 -6.39752 0.539663
139 2 -0.4 6.61645 -9.01763 -1.73174
60 4 0.2 6.53316 -7.88744 -0.843954
140 2 -0.4 7.46921 -8.02332 0.218937
141 3 0.2 8.18164 -8.5727 -0.114194
150 3 0.2 -8.00489 -6.99424 1.42259
149 2 -0.4 -7.70469 -6.08103 1.40825
151 3 0.2 -8.34333 -4.4897 1.37458
89 4 0.2 -5.76327 -0.867599 1.52429
92 1 0.0444 -6.05709 -5.06663 -0.0218005
93 1 0.0444 -6.04495 -3.70192 0.554834
94 4 0.2 -7.09967 -2.96294 1.27502
95 1 0.0444 -6.98583 -1.59836 1.75969
96 1 0.0444 -8.03271 -0.959695 2.49708
98 4 0.2 -7.21975 -5.90702 0.083361
99 2 -0.4 -8.33186 -3.57585 1.67644
100 3 0.2 -9.19376 -1.71814 2.72544
148 2 -0.4 -7.14916 -7.26107 -0.329655
167 2 -0.4 -5.22904 -0.600111 2.81309
84 4 0.2 -3.53035 -0.716625 0.461833
87 4 0.2 -4.855 -2.8924 0.311514
88 4 0.2 -4.74968 -1.47616 0.692962
154 2 -0.4 -3.43929 -4.54359 0.891185
156 2 -0.4 -0.531193 -1.11633 1.27426
189 2 -0.4 0.803593 -5.85244 0.758017
198 3 0.2 1.72694 -4.16863 2.06721
42 4 0.2 3.84204 -0.790893 -0.375236
44 1 0.0444 2.6382 -2.93025 -0.0253567
45 1 0.0444 6.22123 -0.604281 0.366893
46 4 0.2 5.09089 -1.4251 -0.0436402
47 1 0.0444 5.16047 -2.84847 0.0961774
48 4 0.2 3.92961 -3.61814 0.144135
53 4 0.2 6.4419 -3.50661 0.225965
54 4 0.2 6.40952 -4.95167 0.286312
55 4 0.2 5.28205 -5.75339 -0.173975
59 2 -0.4 7.72018 -5.4709 0.314311
62 4 0.2 1.38336 -3.62941 0.161397
190 2 -0.4 3.88377 -3.77561 1.57189
191 3 0.2 4.27868 -3.01363 2.02528
197 2 -0.4 1.22696 -3.49189 1.59918
135 2 -0.4 7.26061 -1.42908 4.34968
51 4 0.2 7.30252 -1.24979 1.10682
52 4 0.2 7.24363 -2.70969 1.10202
136 3 0.2 6.50544 -1.80842 4.80336
137 3 0.2 7.79295 -2.91755 3.02005
50 1 0.0444 7.58655 -0.423427 2.24612
57 4 0.2 6.69013 -0.632672 3.35512
58 2 -0.4 7.54042 -3.4847 2.27775
134 2 -0.4 5.45627 -1.33125 3.13863
105 4 0.2 -5.60807 0.510005 2.00111
110 1 0.0444 -7.93529 0.421658 2.87537
111 1 0.0444 -6.75497 1.17975 2.57893
112 1 0.0444 -6.78251 2.62212 2.6043
113 4 0.2 -5.80092 3.40825 1.89945
114 1 0.0444 -5.72589 4.83852 2.03388
117 3 0.2 -9.052 1.04249 3.444
118 3 0.2 -7.93751 3.29011 3.03215
119 3 0.2 -6.84215 5.56274 2.48291
103 4 0.2 -2.28998 1.40138 0.333445
115 1 0.0444 -4.65185 5.61145 1.46978
102 4 0.2 -3.30669 0.617259 1.04347
106 4 0.2 -4.44671 1.30874 1.62344
107 4 0.2 -4.55647 2.75659 1.51937
108 1 0.0444 -3.44592 3.52334 0.957563
159 2 -0.4 0.729733 1.17228 1.03745
160 2 -0.4 -2.58721 0.205326 2.24355
161 3 0.2 -2.95015 0.616128 3.03609
166 2 -0.4 -4.04999 2.19031 2.70461
187 2 -0.4 -0.0709065 5.36197 1.09649
24 4 0.2 3.7934 0.630954 -0.500302
21 4 0.2 1.31051 0.659457 -0.182856
28 1 0.0444 5.0351 1.38493 -0.481792
29 4 0.2 6.0948 0.855783 0.351062
168 2 -0.4 1.76091 3.65372 0.940778
169 3 0.2 2.55834 3.13477 1.12348
176 2 -0.4 4.22165 3.46915 0.21275
177 2 -0.4 3.20275 1.06502 0.710001
199 2 -0.4 5.43383 1.21905 1.60695
200 3 0.2 5.28593 0.454454 2.17038
132 2 -0.4 8.41242 1.29383 4.28825
133 3 0.2 8.11093 1.95628 4.91387
35 1 0.0444 7.27164 1.61585 0.749583
36 1 0.0444 7.93258 1.00249 1.96285
40 4 0.2 8.31709 1.89787 3.01108
131 2 -0.4 7.41328 2.98587 3.17785
183 2 -0.4 -2.07224 6.69896 1.57654
185 2 -0.4 0.303461 7.88992 0.732041
186 3 0.2 -0.116239 7.42344 1.46464
126 2 -0.4 5.08706 7.23388 -4.47422
127 3 0.2 5.59569 6.75794 -5.13786
37 4 0.2 5.76298 6.99401 -3.26006
125 2 -0.4 6.51925 5.88366 -3.7098
ITEM: TIMESTEP
3000
ITEM: NUMBER OF ATOMS
202
ITEM: BOX BOUNDS pp pp pp
-2.4509499999999999e+01 2.6348099999999999e+01
-2.5981400000000001e+01 2.5981400000000001e+01
-2.0000000000000000e+01 2.0000000000000000e+01
ITEM: ATOMS id type q x y z
148 2 -0.4 -6.62322 -5.39296 2.86092
73 1 0.0444 0.208648 -7.29879 0.630611
74 1 0.0444 -1.08208 -7.94388 0.739523
75 4 0.2 -2.33319 -7.23827 0.643394
76 1 0.0444 -3.58439 -7.86055 0.873147
79 3 0.2 -1.0817 -9.31999 1.0028
80 3 0.2 -3.63076 -9.21246 1.24313
90 1 0.0444 -4.84982 -7.17381 0.873251
142 2 -0.4 0.423384 -10.2706 0.699093
143 2 -0.4 2.68687 -10.1184 1.03741
144 3 0.2 2.39548 -11.0264 1.17048
70 1 0.0444 3.99698 -7.78422 -0.0874307
71 1 0.0444 2.69007 -7.21454 0.152957
72 1 0.0444 1.49598 -8.00021 0.535921
77 3 0.2 4.1567 -9.15528 0.169271
78 4 0.2 1.55864 -9.43462 0.55606
56 1 0.0444 5.22682 -7.07715 -0.417956
139 2 -0.4 6.26605 -9.23435 -0.0267701
60 4 0.2 6.31525 -7.96704 -0.654716
140 2 -0.4 7.64316 -7.66192 -0.986988
141 3 0.2 8.11972 -8.49466 -0.894584
145 2 -0.4 -7.22899 -7.58452 0.796295
97 4 0.2 -5.95033 -7.983 1.26031
92 1 0.0444 -6.09893 -4.85204 0.532407
146 2 -0.4 -5.77728 -9.37395 1.04664
147 3 0.2 -6.681 -9.67653 0.905646
163 2 -0.4 -4.71127 -2.65704 -1.95086
153 2 -0.4 -2.31127 -6.72481 -0.667628
155 2 -0.4 -1.42991 -3.75729 -1.2154
184 2 -0.4 -2.64638 -1.27058 -1.87157
64 4 0.2 -1.09057 -3.74518 0.162365
67 4 0.2 0.185545 -5.8592 0.605143
68 1 0.0444 -1.08117 -5.13616 0.512278
69 4 0.2 -2.36311 -5.8255 0.425597
81 4 0.2 -1.14592 -0.879565 -0.181848
82 4 0.2 -2.30163 -3.07616 -0.304558
83 4 0.2 -2.30071 -1.63143 -0.538417
85 4 0.2 -3.64267 -5.11605 0.300024
86 4 0.2 -3.5652 -3.75154 -0.186646
91 1 0.0444 -4.92722 -5.75518 0.53124
63 1 0.0444 0.138255 -3.00165 0.291869
180 2 -0.4 1.70369 -1.08606 -1.21712
188 2 -0.4 4.30299 -0.79431 -1.48977
192 2 -0.4 2.02723 -5.85513 -1.45436
193 3 0.2 2.74631 -5.90301 -2.09744
194 2 -0.4 4.40582 -5.33217 -1.5729
195 2 -0.4 6.03307 -3.4226 -2.38799
196 3 0.2 6.45718 -4.23439 -2.70058
41 4 0.2 1.26335 -0.810452 0.114346
43 4 0.2 2.53496 -1.44762 -0.134854
49 4 0.2 3.8981 -5.01298 -0.292777
65 4 0.2 2.59812 -5.77129 -0.107065
66 4 0.2 1.42576 -5.09042 0.467209
42 4 0.2 3.74662 -0.667287 -0.183414
44 1 0.0444 2.60303 -2.89138 -0.0437268
46 4 0.2 5.0305 -1.28593 -0.396288
55 4 0.2 5.21847 -5.63854 -0.4829
165 3 0.2 -4.64342 3.67523 -3.50406
157 2 -0.4 -0.511503 0.388901 -1.83274
158 3 0.2 -0.862448 1.03724 -2.4545
162 2 -0.4 -2.31531 1.98902 -1.96884
175 2 -0.4 -0.201771 3.33683 -1.34381
181 2 -0.4 -2.99541 5.14807 -2.48521
182 3 0.2 -2.37713 4.44749 -2.73118
1 4 0.2 -0.010029 1.34801 0.0169371
3 4 0.2 -0.00817789 2.81446 -0.0154321
101 4 0.2 -1.09128 0.558479 -0.503888
7 4 0.2 -0.296294 5.64292 0.672621
170 2 -0.4 2.4565 3.00694 -1.25076
171 3 0.2 2.23143 3.91693 -1.49679
174 2 -0.4 1.42509 5.55791 -0.613515
178 2 -0.4 3.88576 5.48232 -0.730749
179 3 0.2 3.15076 5.64879 -1.33254
8 4 0.2 1.00751 4.99155 0.596838
9 4 0.2 2.20886 5.77582 0.592376
22 4 0.2 2.40057 2.85551 0.193698
25 4 0.2 3.50412 5.12326 0.623122
26 4 0.2 3.56265 3.64611 0.555095
31 1 0.0444 4.59213 5.76684 1.36928
33 1 0.0444 6.0031 3.72454 0.826162
4 4 0.2 1.14342 3.54092 0.520715
23 4 0.2 2.41521 1.37658 0.307235
27 4 0.2 4.81958 2.93023 0.656811
32 1 0.0444 5.88668 5.10913 1.33099
38 3 0.2 7.00832 5.86209 1.71633
24 4 0.2 3.69017 0.726099 0.174242
21 4 0.2 1.20182 0.629884 0.279582
28 1 0.0444 4.8972 1.50502 0.297521
125 2 -0.4 6.25063 6.88767 3.5558
122 2 -0.4 -1.12624 9.55624 2.33921
123 3 0.2 -1.43825 10.4418 2.54567
12 1 0.0444 -1.69092 7.72696 0.734653
18 4 0.2 -1.94767 9.0392 1.27887
121 2 -0.4 -2.76475 9.96555 0.561062
13 4 0.2 -0.39773 7.0846 0.981947
124 3 0.2 -0.030305 9.53007 0.261669
172 2 -0.4 2.92233 7.77251 -0.351746
173 3 0.2 3.75999 7.31756 -0.503035
14 4 0.2 0.859594 7.82258 0.768771
15 4 0.2 2.17833 7.20812 0.778229
16 1 0.0444 3.09354 7.68176 1.78009
19 2 -0.4 0.813015 9.10372 0.0858396
20 3 0.2 2.89085 8.92735 2.38872
30 1 0.0444 4.32255 7.01485 2.07252
126 2 -0.4 5.01035 8.99442 3.45685
127 3 0.2 5.66391 9.09776 4.15597
37 4 0.2 5.18444 7.64394 3.01382
150 3 0.2 -8.04339 -3.80943 2.88197
149 2 -0.4 -7.79633 -3.66047 1.96381
151 3 0.2 -8.38408 -4.5314 -0.557704
89 4 0.2 -5.97521 -0.888697 -1.12979
93 1 0.0444 -6.06562 -3.66146 -0.306573
94 4 0.2 -7.2223 -2.95088 -0.785216
95 1 0.0444 -7.20042 -1.59973 -1.22581
96 1 0.0444 -8.37632 -0.94423 -1.66093
98 4 0.2 -7.02867 -4.8198 1.63872
99 2 -0.4 -8.47198 -3.63359 -0.897083
100 3 0.2 -9.5575 -1.70348 -1.6509
61 4 0.2 0.0539745 -1.57999 0.192126
167 2 -0.4 -6.25985 -0.0445281 -0.0343304
84 4 0.2 -3.51828 -0.894241 -0.804945
87 4 0.2 -4.77923 -3.04742 -0.573514
88 4 0.2 -4.74947 -1.63071 -0.943435
154 2 -0.4 -3.61434 -4.01947 1.20892
156 2 -0.4 -0.900927 -1.20773 1.1891
189 2 -0.4 0.96536 -5.58049 1.74046
198 3 0.2 1.97393 -3.89687 2.40309
45 1 0.0444 6.25717 -0.49512 -0.375657
47 1 0.0444 5.07334 -2.72656 -0.532132
48 4 0.2 3.90801 -3.55648 -0.12505
53 4 0.2 6.30549 -3.32691 -0.973672
54 4 0.2 6.37079 -4.74155 -0.648864
62 4 0.2 1.43305 -3.62322 0.483621
190 2 -0.4 4.25755 -3.65544 1.26239
191 3 0.2 4.03264 -2.84686 1.73358
197 2 -0.4 1.574 -3.19695 1.87077
136 3 0.2 11.0445 -1.36872 -2.78053
57 4 0.2 9.98797 -0.728107 -1.29602
134 2 -0.4 10.56 -1.78228 -0.526526
201 2 -0.4 7.20525 -0.859485 -2.29565
202 3 0.2 7.51295 -1.63663 -2.78281
138 3 0.2 7.62775 -6.06554 0.0817116
59 2 -0.4 7.57426 -5.1076 0.00732692
135 2 -0.4 10.2475 -0.837258 -2.70821
51 4 0.2 7.49244 -1.02879 -0.897301
52 4 0.2 7.48837 -2.47388 -0.963007
137 3 0.2 9.32413 -2.53297 -1.80484
50 1 0.0444 8.71181 -0.231411 -0.801529
58 2 -0.4 8.55556 -3.10968 -1.6974
164 2 -0.4 -5.53777 3.33699 -3.3792
105 4 0.2 -5.97282 0.552117 -1.29007
110 1 0.0444 -8.35957 0.443959 -1.97413
111 1 0.0444 -7.15989 1.21098 -1.81524
112 1 0.0444 -7.1191 2.61841 -2.14142
113 4 0.2 -5.90745 3.38336 -2.00478
114 1 0.0444 -5.94627 4.82377 -1.91289
117 3 0.2 -9.55055 1.0383 -2.40898
118 3 0.2 -8.23305 3.2299 -2.72865
119 3 0.2 -7.05014 5.52043 -2.4304
2 4 0.2 -1.22107 3.50986 -0.381602
104 4 0.2 -2.39472 2.77579 -0.793868
109 4 0.2 -3.58162 4.94499 -1.18768
5 4 0.2 -2.58828 5.60064 -0.340073
6 4 0.2 -1.37131 4.89564 0.0400785
103 4 0.2 -2.34175 1.3123 -0.706902
115 1 0.0444 -4.85472 5.61443 -1.41353
102 4 0.2 -3.58937 0.575809 -0.623704
106 4 0.2 -4.80306 1.3303 -1.03314
107 4 0.2 -4.78155 2.75004 -1.36957
108 1 0.0444 -3.58347 3.50393 -1.11282
159 2 -0.4 0.31584 0.992976 1.3559
160 2 -0.4 -3.69097 0.512558 0.820107
161 3 0.2 -4.10452 1.3092 1.17804
166 2 -0.4 -5.19951 2.37369 -0.0934201
187 2 -0.4 -1.21865 4.86765 1.46076
34 1 0.0444 7.03716 3.20693 -0.0417646
29 4 0.2 6.18812 0.86805 0.13751
168 2 -0.4 1.06263 3.38109 1.94758
169 3 0.2 1.23797 2.4659 2.20268
176 2 -0.4 3.99576 3.12105 1.79193
177 2 -0.4 3.04263 0.788199 1.44476
199 2 -0.4 6.24265 0.530616 1.54071
200 3 0.2 7.16074 0.374626 1.79524
128 2 -0.4 7.73209 3.34856 -2.39266
39 4 0.2 7.18994 3.94949 -1.25126
129 2 -0.4 6.05534 4.63902 -1.70598
130 3 0.2 6.07767 4.61166 -2.66807
132 2 -0.4 10.4448 0.874519 0.993203
133 3 0.2 11.1029 1.38072 1.46968
35 1 0.0444 7.32962 1.76219 -0.0860675
36 1 0.0444 8.6417 1.17094 -0.375578
40 4 0.2 9.88619 1.76687 0.0262871