# graphene
1027 atoms 
1395 bonds 
2979 angles 
6332 dihedrals 
316 impropers 

354 atom types 
16 bond types 
39 angle types 
101 dihedral types 
18 improper types 

0.0	149.01010965096896	 xlo xhi 
0.0	149.01010965096896	 ylo yhi 
0.0	3.4827	 zlo zhi 


 Masses 
 
1	12.011
2	1.008
3	12.011
4	15.999
5	1.008
6	15.999
11	12.011
7	15.999
8	12.011
9	15.999
10	15.999
12	12.011
13	15.999
349	22.99
354	40.08

 Pair Coeffs 
 
1	0.07	3.55
2	0.03	2.42
3	0.066	3.5
4	0.17	3.12
5	0.0	0.0
6	0.14	2.9
11	0.07	3.55
7	0.17	3.07
8	0.105	3.75
9	0.21	2.96
10	0.17	3.0
12	0.105	3.75
13	0.21	2.96
349	0.0005	4.07
354	0.449657	2.412031

 Bond Coeffs 
 
1	268.0	1.529
2	317.0	1.51
3	469.0	1.4
4	469.0	1.4
5	317.0	1.51
6	367.0	1.08
7	450.0	1.364
8	400.0	1.49
9	469.0	1.4
10	570.0	1.229
11	450.0	1.364
12	553.0	0.945
13	553.0	0.945
14	320.0	1.41
15	320.0	1.41
16	553.0	0.945

 Angle Coeffs 
 
1	58.35	112.7
2	50.0	109.5
3	50.0	109.5
4	50.0	109.5
5	63.0	114.0
6	40.0	109.5
7	70.0	130.0
8	70.0	120.0
9	63.0	120.0
10	50.0	109.5
11	63.0	120.0
12	85.0	120.0
13	70.0	120.0
14	63.0	120.0
15	70.0	120.0
16	70.0	119.7
17	50.0	109.5
18	63.0	114.0
19	40.0	109.5
20	70.0	124.0
21	70.0	120.0
22	63.0	120.0
23	35.0	120.0
24	50.0	109.5
25	40.0	109.5
26	35.0	117.0
27	70.0	130.0
28	80.0	120.4
29	70.0	120.0
30	80.0	121.0
31	35.0	113.0
32	70.0	120.0
33	70.0	120.0
34	85.0	120.0
35	63.0	120.0
36	35.0	120.0
37	35.0	113.0
38	60.0	109.5
39	55.0	108.5

 Dihedral Coeffs 
 
1	1.3	-0.05	0.2	0.0
2	1.3	-0.05	0.2	0.0
3	-1.552	0.0	0.0	0.0
4	4.319	0.0	0.0	0.0
5	-0.55	0.0	0.0	0.0
6	1.711	-0.5	0.663	0.0
7	-4.344	-1.714	0.0	0.0
8	2.817	-0.169	0.543	0.0
9	0.0	-8.0	0.0	0.0
10	1.711	-0.5	0.663	0.0
11	0.0	0.0	0.0	0.0
12	0.0	0.0	0.0	0.0
13	0.0	0.0	0.0	0.0
14	0.0	7.25	0.0	0.0
15	0.0	7.25	0.0	0.0
16	0.0	7.25	0.0	0.0
17	-4.344	-1.714	0.0	0.0
18	0.0	0.0	0.366	0.0
19	0.0	0.0	0.0	0.0
20	1.711	-0.5	0.663	0.0
21	9.508	0.0	0.0	0.0
22	0.0	0.0	0.0	0.0
23	0.0	0.0	0.0	0.0
24	0.0	0.0	0.0	0.0
25	0.0	7.25	0.0	0.0
26	0.0	7.25	0.0	0.0
27	0.0	7.25	0.0	0.0
28	0.0	7.25	0.0	0.0
29	0.0	7.25	0.0	0.0
30	0.0	7.25	0.0	0.0
31	1.711	-0.5	0.663	0.0
32	-4.344	-1.714	0.0	0.0
33	0.0	0.0	0.0	0.0
34	0.5	0.0	0.0	0.0
35	0.0	0.0	0.0	0.0
36	0.5	0.0	0.0	0.0
37	0.0	0.0	0.0	0.0
38	0.5	0.0	0.0	0.0
39	0.0	0.0	0.468	0.0
40	0.0	0.0	0.468	0.0
41	0.0	-8.0	0.0	0.0
42	0.0	0.0	0.0	0.0
43	0.0	7.25	0.0	0.0
44	0.0	7.25	0.0	0.0
45	0.0	7.25	0.0	0.0
46	0.0	7.25	0.0	0.0
47	0.0	7.25	0.0	0.0
48	0.0	7.25	0.0	0.0
49	0.0	7.25	0.0	0.0
50	0.0	7.25	0.0	0.0
51	0.0	7.25	0.0	0.0
52	0.0	7.25	0.0	0.0
53	0.0	7.25	0.0	0.0
54	0.0	0.0	0.0	0.0
55	0.0	-8.0	0.0	0.0
56	0.5	0.0	0.0	0.0
57	0.0	0.0	0.0	0.0
58	0.5	0.0	0.0	0.0
59	0.0	0.0	0.0	0.0
60	0.0	0.0	0.468	0.0
61	0.0	-8.0	0.0	0.0
62	0.0	-8.0	0.0	0.0
63	1.711	-0.5	0.663	0.0
64	0.0	0.0	0.318	0.0
65	0.0	-8.0	0.0	0.0
66	0.0	-8.0	0.0	0.0
67	0.0	1.682	0.0	0.0
68	0.0	2.1	0.0	0.0
69	0.0	2.1	0.0	0.0
70	0.9	0.23	-0.505	0.0
71	0.9	0.23	-0.505	0.0
72	0.0	1.682	0.0	0.0
73	0.0	7.25	0.0	0.0
74	-4.344	-1.714	0.0	0.0
75	0.0	0.0	0.468	0.0
76	0.0	0.0	0.468	0.0
77	2.817	-0.169	0.543	0.0
78	0.0	-8.0	0.0	0.0
79	0.0	0.0	0.0	0.0
80	0.0	0.0	0.0	0.0
81	0.0	0.0	0.0	0.0
82	0.0	1.682	0.0	0.0
83	0.0	7.25	0.0	0.0
84	0.0	7.25	0.0	0.0
85	0.0	7.25	0.0	0.0
86	0.0	7.25	0.0	0.0
87	0.0	7.25	0.0	0.0
88	0.0	7.25	0.0	0.0
89	0.0	7.25	0.0	0.0
90	0.0	2.1	0.0	0.0
91	0.0	2.1	0.0	0.0
92	0.0	7.25	0.0	0.0
93	0.0	7.25	0.0	0.0
94	4.0	5.0	0.0	0.0
95	0.0	5.0	0.0	0.0
96	0.65	-0.25	0.67	0.0
97	-0.521	-2.018	1.996	0.0
98	-0.356	-0.174	0.492	0.0
99	-0.9	0.0	0.0	0.0
100	-0.521	-2.018	1.996	0.0
101	-0.9	0.0	0.0	0.0

 Improper Coeffs 
 
1	5.0	180.0
2	5.0	180.0
3	5.0	180.0
4	5.0	180.0
5	5.0	180.0
6	5.0	180.0
7	5.0	180.0
8	5.0	180.0
9	5.0	180.0
10	5.0	180.0
11	5.0	180.0
12	5.0	180.0
13	5.0	180.0
14	5.0	180.0
15	21.0	180.0
16	5.0	180.0
17	5.0	180.0
18	5.0	180.0

 Atoms 
 
1	 1	 3	 0.265	 0.0	 1.4148	 0.0
 2	 1	 3	 0.2	 -1.225252741274224	 3.5370000000000004	 0.0
 3	 1	 3	 0.2	 0.0	 2.8296	 0.0
 4	 1	 3	 0.2	 1.225252741274224	 3.5370000000000004	 0.0
 5	 1	 1	 0	 -2.450505482548448	 5.6592	 0.0
 6	 1	 3	 0.2	 -1.225252741274224	 4.9518	 0.0
 7	 1	 1	 0	 0.0	 5.6592	 0.0
 8	 1	 1	 0	 1.225252741274224	 4.9518	 0.0
 9	 1	 1	 0	 2.450505482548448	 5.6592	 0.0
 10	 1	 1	 0	 -3.675758223822672	 7.781400000000001	 0.0
 11	 1	 3	 0.2	 -2.450505482548448	 7.074000000000001	 0.0
 12	 1	 3	 0.2	 -1.225252741274224	 7.781400000000001	 0.0
 13	 1	 1	 0	 0.0	 7.074000000000001	 0.0
 14	 1	 1	 0	 1.225252741274224	 7.781400000000001	 0.0
 15	 1	 1	 0	 2.450505482548448	 7.074000000000001	 0.0
 16	 1	 3	 0.2	 3.675758223822672	 7.781400000000001	 0.0
 17	 1	 1	 0	 -4.901010965096896	 9.9036	 0.0
 18	 1	 1	 0	 -3.675758223822672	 9.196200000000001	 0.0
 19	 1	 3	 0.2	 -2.450505482548448	 9.9036	 0.0
 20	 1	 3	 0.265	 -1.225252741274224	 9.196200000000001	 0.0
 21	 1	 1	 0	 0.0	 9.9036	 0.0
 22	 1	 1	 0	 1.225252741274224	 9.196200000000001	 0.0
 23	 1	 1	 0	 2.450505482548448	 9.9036	 0.0
 24	 1	 3	 0.2	 3.675758223822672	 9.196200000000001	 0.0
 25	 1	 3	 0.2	 4.901010965096896	 9.9036	 0.0
 26	 1	 3	 0.2	 -6.12626370637112	 12.0258	 0.0
 27	 1	 3	 0.2	 -4.901010965096896	 11.3184	 0.0
 28	 1	 1	 0	 -3.675758223822672	 12.0258	 0.0
 29	 1	 3	 0.2	 -2.450505482548448	 11.3184	 0.0
 30	 1	 1	 0	 -1.225252741274224	 12.0258	 0.0
 31	 1	 1	 0	 0.0	 11.3184	 0.0
 32	 1	 1	 0	 1.225252741274224	 12.0258	 0.0
 33	 1	 1	 0	 2.450505482548448	 11.3184	 0.0
 34	 1	 3	 0.2	 3.675758223822672	 12.0258	 0.0
 35	 1	 3	 0.2	 4.901010965096896	 11.3184	 0.0
 36	 1	 1	 0	 6.12626370637112	 12.0258	 0.0
 37	 1	 3	 0.265	 -7.351516447645344	 14.148000000000001	 0.0
 38	 1	 1	 0	 -6.12626370637112	 13.440600000000002	 0.0
 39	 1	 3	 0.265	 -4.901010965096896	 14.148000000000001	 0.0
 40	 1	 3	 0.265	 -3.6757582238226716	 13.440600000000002	 0.0
 41	 1	 3	 0.2	 -2.450505482548448	 14.148000000000001	 0.0
 42	 1	 3	 0.2	 -1.2252527412742236	 13.440600000000002	 0.0
 43	 1	 3	 0.265	 0.0	 14.148000000000001	 0.0
 44	 1	 1	 0	 1.2252527412742245	 13.440600000000002	 0.0
 45	 1	 3	 0.2	 2.450505482548448	 14.148000000000001	 0.0
 46	 1	 3	 0.2	 3.6757582238226725	 13.440600000000002	 0.0
 47	 1	 3	 0.2	 4.901010965096896	 14.148000000000001	 0.0
 48	 1	 3	 0.2	 6.12626370637112	 13.440600000000002	 0.0
 49	 1	 3	 0.2	 7.351516447645343	 14.148000000000001	 0.0
 50	 1	 3	 0.2	 -8.576769188919569	 16.270200000000003	 0.0
 51	 1	 3	 0.2	 -7.351516447645344	 15.562800000000003	 0.0
 52	 1	 3	 0.265	 -6.12626370637112	 16.270200000000003	 0.0
 53	 1	 3	 0.265	 -4.901010965096896	 15.562800000000003	 0.0
 54	 1	 3	 0.265	 -3.6757582238226716	 16.270200000000003	 0.0
 55	 1	 3	 0.265	 -2.450505482548448	 15.562800000000003	 0.0
 56	 1	 3	 0.265	 -1.2252527412742236	 16.270200000000003	 0.0
 57	 1	 1	 0	 0.0	 15.562800000000003	 0.0
 58	 1	 3	 0.2	 1.2252527412742245	 16.270200000000003	 0.0
 59	 1	 3	 0.2	 2.450505482548448	 15.562800000000003	 0.0
 60	 1	 1	 0	 3.6757582238226725	 16.270200000000003	 0.0
 61	 1	 1	 0	 4.901010965096895	 15.562800000000003	 0.0
 62	 1	 3	 0.2	 6.12626370637112	 16.270200000000003	 0.0
 63	 1	 3	 0.265	 7.351516447645344	 15.562800000000003	 0.0
 64	 1	 3	 0.265	 8.576769188919569	 16.270200000000003	 0.0
 65	 1	 3	 0.2	 -9.802021930193792	 18.392400000000002	 0.0
 66	 1	 3	 0.2	 -8.576769188919569	 17.685000000000002	 0.0
 67	 1	 3	 0.2	 -7.351516447645344	 18.392400000000002	 0.0
 68	 1	 3	 0.265	 -6.1262637063711205	 17.685000000000002	 0.0
 69	 1	 3	 0.265	 -4.901010965096896	 18.392400000000002	 0.0
 70	 1	 1	 0	 -3.6757582238226725	 17.685000000000002	 0.0
 71	 1	 3	 0.265	 -2.450505482548448	 18.392400000000002	 0.0
 72	 1	 1	 0	 -1.2252527412742245	 17.685000000000002	 0.0
 73	 1	 3	 0.2	 0.0	 18.392400000000002	 0.0
 74	 1	 3	 0.2	 1.2252527412742236	 17.685000000000002	 0.0
 75	 1	 1	 0	 2.450505482548448	 18.392400000000002	 0.0
 76	 1	 1	 0	 3.6757582238226707	 17.685000000000002	 0.0
 77	 1	 1	 0	 4.901010965096895	 18.392400000000002	 0.0
 78	 1	 3	 0.2	 6.12626370637112	 17.685000000000002	 0.0
 79	 1	 1	 0	 7.351516447645344	 18.392400000000002	 0.0
 80	 1	 3	 0.265	 8.576769188919569	 17.685000000000002	 0.0
 81	 1	 1	 0	 9.802021930193792	 18.392400000000002	 0.0
 82	 1	 11	 -0.115	 -11.027274671468016	 20.5146	 0.0
 83	 1	 1	 0	 -9.802021930193792	 19.8072	 0.0
 84	 1	 11	 -0.115	 -8.576769188919569	 20.5146	 0.0
 85	 1	 3	 0.2	 -7.351516447645344	 19.8072	 0.0
 86	 1	 11	 0.15	 -6.1262637063711205	 20.5146	 0.0
 87	 1	 1	 0	 -4.901010965096896	 19.8072	 0.0
 88	 1	 1	 -0.115	 -3.6757582238226725	 20.5146	 0.0
 89	 1	 1	 0	 -2.450505482548448	 19.8072	 0.0
 90	 1	 1	 -0.115	 -1.2252527412742245	 20.5146	 0.0
 91	 1	 1	 0	 0.0	 19.8072	 0.0
 92	 1	 11	 0.15	 1.2252527412742236	 20.5146	 0.0
 93	 1	 1	 0	 2.450505482548447	 19.8072	 0.0
 94	 1	 11	 -0.115	 3.6757582238226707	 20.5146	 0.0
 95	 1	 3	 0.265	 4.901010965096896	 19.8072	 0.0
 96	 1	 1	 -0.115	 6.12626370637112	 20.5146	 0.0
 97	 1	 3	 0.265	 7.351516447645345	 19.8072	 0.0
 98	 1	 11	 0.15	 8.576769188919569	 20.5146	 0.0
 99	 1	 3	 0.265	 9.802021930193792	 19.8072	 0.0
 100	 1	 1	 -0.115	 11.027274671468016	 20.5146	 0.0
 101	 1	 8	 0.635	 -11.027274671468016	 21.9146	 0.0
 102	 1	 8	 0.635	 -8.576769188919567	 21.9146	 0.0
 103	 1	 7	 -0.585	 -6.12626370637112	 21.9146	 0.0
 104	 1	 2	 0.115	 -3.6757582238226716	 21.591600000000003	 0.0
 105	 1	 2	 0.115	 -1.2252527412742236	 21.591600000000003	 0.0
 106	 1	 7	 -0.585	 1.2252527412742236	 21.9146	 0.0
 107	 1	 8	 0.635	 3.675758223822673	 21.9146	 0.0
 108	 1	 2	 0.115	 6.126263706371121	 21.591600000000003	 0.0
 109	 1	 7	 -0.585	 8.576769188919569	 21.9146	 0.0
 110	 1	 2	 0.115	 11.027274671468016	 21.591600000000003	 0.0
 111	 1	 3	 0.265	 1.2252527412742238	 0.7074000000000001	 0.0
 112	 1	 1	 0	 2.4505054825484476	 2.829600000000001	 0.0
 113	 1	 3	 0.265	 2.4505054825484476	 1.4148000000000003	 0.0
 114	 1	 3	 0.2	 3.675758223822672	 0.7074000000000005	 0.0
 115	 1	 3	 0.2	 3.6757582238226707	 4.9518	 0.0
 116	 1	 1	 0	 3.675758223822671	 3.537000000000001	 0.0
 117	 1	 3	 0.265	 4.901010965096895	 2.8296000000000006	 0.0
 118	 1	 3	 0.2	 4.901010965096895	 1.4148000000000005	 0.0
 119	 1	 3	 0.2	 6.12626370637112	 0.7074000000000003	 0.0
 120	 1	 3	 0.2	 4.901010965096895	 7.074000000000002	 0.0
 121	 1	 3	 0.2	 4.901010965096895	 5.659200000000002	 0.0
 122	 1	 3	 0.265	 6.12626370637112	 4.951800000000002	 0.0
 123	 1	 3	 0.265	 6.12626370637112	 3.5370000000000013	 0.0
 124	 1	 3	 0.2	 7.351516447645343	 2.8296000000000014	 0.0
 125	 1	 3	 0.265	 7.351516447645344	 1.414800000000001	 0.0
 126	 1	 3	 0.265	 8.576769188919569	 0.7074000000000011	 0.0
 127	 1	 3	 0.265	 6.126263706371118	 9.196200000000001	 0.0
 128	 1	 3	 0.2	 6.126263706371119	 7.781400000000001	 0.0
 129	 1	 3	 0.2	 7.351516447645342	 7.074000000000002	 0.0
 130	 1	 1	 0	 7.351516447645343	 5.659200000000002	 0.0
 131	 1	 3	 0.265	 8.576769188919567	 4.951800000000001	 0.0
 132	 1	 3	 0.2	 8.576769188919567	 3.5370000000000013	 0.0
 133	 1	 3	 0.265	 9.80202193019379	 2.829600000000001	 0.0
 134	 1	 3	 0.265	 9.802021930193792	 1.414800000000001	 0.0
 135	 1	 1	 0	 11.027274671468016	 0.7074000000000007	 0.0
 136	 1	 1	 0	 7.3515164476453405	 11.318400000000002	 0.0
 137	 1	 3	 0.265	 7.351516447645341	 9.9036	 0.0
 138	 1	 3	 0.2	 8.576769188919565	 9.196200000000003	 0.0
 139	 1	 3	 0.265	 8.576769188919567	 7.781400000000001	 0.0
 140	 1	 1	 0	 9.802021930193789	 7.074000000000002	 0.0
 141	 1	 3	 0.265	 9.80202193019379	 5.659200000000001	 0.0
 142	 1	 3	 0.265	 11.027274671468014	 4.951800000000002	 0.0
 143	 1	 3	 0.265	 11.027274671468014	 3.537000000000001	 0.0
 144	 1	 3	 0.2	 12.252527412742237	 2.8296000000000014	 0.0
 145	 1	 3	 0.265	 12.25252741274224	 1.4148000000000005	 0.0
 146	 1	 3	 0.2	 13.477780154016461	 0.7074000000000016	 0.0
 147	 1	 3	 0.2	 8.576769188919567	 13.440600000000003	 0.0
 148	 1	 1	 0	 8.576769188919567	 12.025800000000004	 0.0
 149	 1	 3	 0.2	 9.80202193019379	 11.318400000000004	 0.0
 150	 1	 3	 0.2	 9.80202193019379	 9.903600000000003	 0.0
 151	 1	 3	 0.265	 11.027274671468016	 9.196200000000003	 0.0
 152	 1	 3	 0.265	 11.027274671468014	 7.781400000000002	 0.0
 153	 1	 3	 0.265	 12.25252741274224	 7.0740000000000025	 0.0
 154	 1	 3	 0.265	 12.25252741274224	 5.659200000000002	 0.0
 155	 1	 3	 0.265	 13.477780154016463	 4.951800000000002	 0.0
 156	 1	 3	 0.2	 13.477780154016463	 3.5370000000000017	 0.0
 157	 1	 3	 0.2	 14.703032895290688	 2.829600000000002	 0.0
 158	 1	 3	 0.2	 14.703032895290686	 1.4148000000000023	 0.0
 159	 1	 3	 0.265	 15.928285636564912	 0.7074000000000025	 0.0
 160	 1	 1	 0	 9.80202193019379	 15.562800000000005	 0.0
 161	 1	 3	 0.265	 9.80202193019379	 14.148000000000003	 0.0
 162	 1	 1	 0	 11.027274671468014	 13.440600000000003	 0.0
 163	 1	 3	 0.2	 11.027274671468014	 12.025800000000004	 0.0
 164	 1	 3	 0.2	 12.25252741274224	 11.318400000000004	 0.0
 165	 1	 3	 0.2	 12.25252741274224	 9.903600000000004	 0.0
 166	 1	 3	 0.2	 13.477780154016463	 9.196200000000003	 0.0
 167	 1	 3	 0.2	 13.477780154016463	 7.781400000000003	 0.0
 168	 1	 3	 0.265	 14.703032895290688	 7.0740000000000025	 0.0
 169	 1	 3	 0.265	 14.703032895290686	 5.659200000000003	 0.0
 170	 1	 3	 0.265	 15.928285636564912	 4.951800000000002	 0.0
 171	 1	 3	 0.265	 15.928285636564912	 3.5370000000000035	 0.0
 172	 1	 3	 0.265	 17.153538377839137	 2.829600000000003	 0.0
 173	 1	 1	 0	 17.153538377839137	 1.4148000000000023	 0.0
 174	 1	 3	 0.2	 18.37879111911336	 0.7074000000000016	 0.0
 175	 1	 3	 0.265	 11.027274671468014	 17.685000000000002	 0.0
 176	 1	 3	 0.265	 11.027274671468014	 16.270200000000003	 0.0
 177	 1	 3	 0.2	 12.252527412742237	 15.562800000000003	 0.0
 178	 1	 1	 0	 12.252527412742237	 14.148000000000003	 0.0
 179	 1	 1	 0	 13.477780154016461	 13.440600000000003	 0.0
 180	 1	 3	 0.2	 13.477780154016463	 12.025800000000004	 0.0
 181	 1	 3	 0.2	 14.703032895290686	 11.318400000000004	 0.0
 182	 1	 3	 0.265	 14.703032895290686	 9.903600000000004	 0.0
 183	 1	 3	 0.2	 15.92828563656491	 9.196200000000003	 0.0
 184	 1	 3	 0.2	 15.928285636564912	 7.781400000000003	 0.0
 185	 1	 3	 0.2	 17.153538377839133	 7.0740000000000025	 0.0
 186	 1	 3	 0.265	 17.153538377839133	 5.659200000000004	 0.0
 187	 1	 3	 0.2	 18.37879111911336	 4.951800000000003	 0.0
 188	 1	 3	 0.2	 18.37879111911336	 3.5370000000000026	 0.0
 189	 1	 3	 0.2	 19.604043860387584	 2.829600000000002	 0.0
 190	 1	 3	 0.2	 19.604043860387584	 1.4148000000000014	 0.0
 191	 1	 1	 0	 20.829296601661806	 0.7074000000000016	 0.0
 192	 1	 1	 -0.115	 12.252527412742237	 19.8072	 0.0
 193	 1	 1	 0	 12.252527412742236	 18.392400000000002	 0.0
 194	 1	 11	 -0.115	 13.477780154016461	 17.685000000000002	 0.0
 195	 1	 3	 0.2	 13.477780154016461	 16.270200000000003	 0.0
 196	 1	 11	 0.15	 14.703032895290685	 15.562800000000003	 0.0
 197	 1	 1	 0	 14.703032895290685	 14.148000000000003	 0.0
 198	 1	 1	 -0.115	 15.92828563656491	 13.440600000000003	 0.0
 199	 1	 3	 0.265	 15.92828563656491	 12.025800000000004	 0.0
 200	 1	 11	 -0.115	 17.153538377839133	 11.318400000000004	 0.0
 201	 1	 1	 0	 17.153538377839133	 9.903600000000003	 0.0
 202	 1	 11	 -0.115	 18.37879111911336	 9.196200000000003	 0.0
 203	 1	 3	 0.2	 18.37879111911336	 7.781400000000003	 0.0
 204	 1	 1	 -0.115	 19.60404386038758	 7.074000000000003	 0.0
 205	 1	 1	 0	 19.60404386038758	 5.659200000000002	 0.0
 206	 1	 11	 -0.115	 20.829296601661806	 4.951800000000002	 0.0
 207	 1	 3	 0.265	 20.829296601661806	 3.537000000000001	 0.0
 208	 1	 11	 0.15	 22.05454934293603	 2.829600000000001	 0.0
 209	 1	 3	 0.265	 22.05454934293603	 1.4148000000000014	 0.0
 210	 1	 11	 0.15	 23.279802084210253	 0.7074000000000016	 0.0
 211	 1	 2	 0.115	 13.185236772618078	 20.345700000000004	 0.0
 212	 1	 8	 0.635	 14.690215719314676	 18.385	 0.0
 213	 1	 7	 -0.585	 15.9154684605889	 16.262800000000002	 0.0
 214	 1	 2	 0.115	 16.860994996440752	 13.979100000000003	 0.0
 215	 1	 8	 0.635	 18.365973943137348	 12.018400000000003	 0.0
 216	 1	 8	 0.635	 19.591226684411573	 9.896200000000004	 0.0
 217	 1	 2	 0.115	 20.536753220263424	 7.6125000000000025	 0.0
 218	 1	 8	 0.635	 22.04173216696002	 5.6518000000000015	 0.0
 219	 1	 7	 -0.585	 23.266984908234246	 3.529600000000002	 0.0
 220	 1	 7	 -0.585	 24.492237649508468	 1.4074000000000004	 0.0
 221	 1	 3	 0.2	 1.225252741274224	 -0.7073999999999997	 0.0
 222	 1	 3	 0.2	 3.6757582238226716	 -0.7073999999999991	 0.0
 223	 1	 3	 0.265	 2.450505482548448	 -1.4147999999999994	 0.0
 224	 1	 3	 0.2	 2.450505482548448	 -2.8295999999999992	 0.0
 225	 1	 1	 0	 6.12626370637112	 -0.7073999999999985	 0.0
 226	 1	 1	 0	 4.901010965096896	 -1.4147999999999992	 0.0
 227	 1	 1	 0	 4.901010965096896	 -2.829599999999999	 0.0
 228	 1	 3	 0.2	 3.6757582238226725	 -3.5369999999999995	 0.0
 229	 1	 1	 0	 3.6757582238226725	 -4.951799999999999	 0.0
 230	 1	 3	 0.265	 8.576769188919567	 -0.707399999999998	 0.0
 231	 1	 1	 0	 7.351516447645343	 -1.4147999999999983	 0.0
 232	 1	 1	 0	 7.351516447645344	 -2.829599999999999	 0.0
 233	 1	 1	 0	 6.12626370637112	 -3.5369999999999986	 0.0
 234	 1	 1	 0	 6.1262637063711205	 -4.951799999999999	 0.0
 235	 1	 1	 0	 4.901010965096896	 -5.6591999999999985	 0.0
 236	 1	 1	 0	 4.901010965096897	 -7.074	 0.0
 237	 1	 3	 0.265	 11.027274671468016	 -0.707399999999998	 0.0
 238	 1	 3	 0.2	 9.80202193019379	 -1.4147999999999978	 0.0
 239	 1	 3	 0.2	 9.802021930193792	 -2.8295999999999983	 0.0
 240	 1	 1	 0	 8.576769188919567	 -3.5369999999999986	 0.0
 241	 1	 1	 0	 8.576769188919569	 -4.951799999999999	 0.0
 242	 1	 1	 0	 7.351516447645344	 -5.6591999999999985	 0.0
 243	 1	 1	 0	 7.351516447645345	 -7.073999999999999	 0.0
 244	 1	 1	 0	 6.1262637063711205	 -7.7814	 0.0
 245	 1	 1	 0	 6.126263706371121	 -9.1962	 0.0
 246	 1	 3	 0.2	 13.477780154016461	 -0.7073999999999963	 0.0
 247	 1	 3	 0.265	 12.25252741274224	 -1.414799999999997	 0.0
 248	 1	 3	 0.2	 12.252527412742237	 -2.8295999999999966	 0.0
 249	 1	 1	 0	 11.027274671468016	 -3.5369999999999973	 0.0
 250	 1	 1	 0	 11.027274671468014	 -4.951799999999997	 0.0
 251	 1	 1	 0	 9.802021930193792	 -5.659199999999998	 0.0
 252	 1	 1	 0	 9.802021930193792	 -7.073999999999998	 0.0
 253	 1	 1	 0	 8.576769188919569	 -7.781399999999998	 0.0
 254	 1	 1	 0	 8.576769188919569	 -9.196199999999997	 0.0
 255	 1	 1	 0	 7.351516447645345	 -9.903599999999997	 0.0
 256	 1	 1	 0	 7.351516447645345	 -11.318399999999999	 0.0
 257	 1	 1	 0	 15.92828563656491	 -0.7073999999999954	 0.0
 258	 1	 3	 0.265	 14.703032895290686	 -1.414799999999997	 0.0
 259	 1	 1	 0	 14.703032895290686	 -2.8295999999999966	 0.0
 260	 1	 3	 0.2	 13.477780154016463	 -3.5369999999999977	 0.0
 261	 1	 1	 0	 13.477780154016463	 -4.951799999999997	 0.0
 262	 1	 1	 0	 12.25252741274224	 -5.6591999999999985	 0.0
 263	 1	 1	 0	 12.25252741274224	 -7.073999999999997	 0.0
 264	 1	 1	 0	 11.027274671468016	 -7.781399999999999	 0.0
 265	 1	 1	 0	 11.027274671468016	 -9.196199999999997	 0.0
 266	 1	 1	 0	 9.802021930193792	 -9.903599999999999	 0.0
 267	 1	 1	 0	 9.802021930193792	 -11.318399999999997	 0.0
 268	 1	 1	 0	 8.57676918891957	 -12.0258	 0.0
 269	 1	 1	 0	 8.57676918891957	 -13.440599999999998	 0.0
 270	 1	 3	 0.2	 18.37879111911336	 -0.7073999999999954	 0.0
 271	 1	 3	 0.265	 17.153538377839133	 -1.414799999999996	 0.0
 272	 1	 3	 0.265	 17.153538377839137	 -2.8295999999999966	 0.0
 273	 1	 3	 0.2	 15.928285636564912	 -3.5369999999999973	 0.0
 274	 1	 3	 0.2	 15.928285636564912	 -4.951799999999997	 0.0
 275	 1	 1	 0	 14.703032895290688	 -5.659199999999998	 0.0
 276	 1	 1	 0	 14.703032895290688	 -7.073999999999998	 0.0
 277	 1	 1	 0	 13.477780154016465	 -7.781399999999998	 0.0
 278	 1	 1	 0	 13.477780154016465	 -9.196199999999997	 0.0
 279	 1	 1	 0	 12.252527412742241	 -9.903599999999997	 0.0
 280	 1	 1	 0	 12.252527412742243	 -11.318399999999999	 0.0
 281	 1	 1	 0	 11.027274671468017	 -12.025799999999998	 0.0
 282	 1	 1	 0	 11.02727467146802	 -13.4406	 0.0
 283	 1	 1	 0	 9.802021930193794	 -14.148	 0.0
 284	 1	 1	 0	 9.802021930193796	 -15.5628	 0.0
 285	 1	 3	 0.2	 20.829296601661806	 -0.7073999999999963	 0.0
 286	 1	 3	 0.2	 19.604043860387584	 -1.4147999999999952	 0.0
 287	 1	 3	 0.2	 19.60404386038758	 -2.8295999999999957	 0.0
 288	 1	 3	 0.265	 18.37879111911336	 -3.5369999999999955	 0.0
 289	 1	 1	 0	 18.37879111911336	 -4.951799999999997	 0.0
 290	 1	 3	 0.2	 17.153538377839137	 -5.659199999999997	 0.0
 291	 1	 3	 0.2	 17.153538377839133	 -7.073999999999997	 0.0
 292	 1	 1	 0	 15.928285636564913	 -7.781399999999997	 0.0
 293	 1	 3	 0.2	 15.928285636564912	 -9.196199999999997	 0.0
 294	 1	 3	 0.2	 14.70303289529069	 -9.903599999999997	 0.0
 295	 1	 1	 0	 14.703032895290688	 -11.318399999999997	 0.0
 296	 1	 1	 0	 13.477780154016466	 -12.025799999999997	 0.0
 297	 1	 1	 0	 13.477780154016465	 -13.440599999999998	 0.0
 298	 1	 1	 0	 12.252527412742243	 -14.148	 0.0
 299	 1	 1	 0	 12.252527412742241	 -15.5628	 0.0
 300	 1	 1	 0	 11.027274671468017	 -16.2702	 0.0
 301	 1	 1	 0	 11.027274671468017	 -17.685	 0.0
 302	 1	 11	 -0.115	 23.279802084210253	 -0.7073999999999927	 0.0
 303	 1	 1	 0	 22.05454934293603	 -1.414799999999996	 0.0
 304	 1	 11	 -0.115	 22.054549342936028	 -2.829599999999993	 0.0
 305	 1	 3	 0.2	 20.829296601661806	 -3.5369999999999955	 0.0
 306	 1	 1	 -0.115	 20.829296601661806	 -4.951799999999993	 0.0
 307	 1	 3	 0.265	 19.604043860387584	 -5.659199999999997	 0.0
 308	 1	 11	 0.15	 19.60404386038758	 -7.0739999999999945	 0.0
 309	 1	 1	 0	 18.37879111911336	 -7.781399999999997	 0.0
 310	 1	 1	 -0.115	 18.37879111911336	 -9.196199999999994	 0.0
 311	 1	 1	 0	 17.153538377839137	 -9.903599999999997	 0.0
 312	 1	 1	 -0.115	 17.153538377839133	 -11.318399999999995	 0.0
 313	 1	 1	 0	 15.928285636564913	 -12.025799999999997	 0.0
 314	 1	 1	 -0.115	 15.928285636564912	 -13.440599999999995	 0.0
 315	 1	 1	 0	 14.70303289529069	 -14.147999999999998	 0.0
 316	 1	 11	 -0.115	 14.703032895290688	 -15.562799999999996	 0.0
 317	 1	 1	 0	 13.477780154016466	 -16.2702	 0.0
 318	 1	 11	 0.15	 13.477780154016465	 -17.685	 0.0
 319	 1	 1	 0	 12.252527412742243	 -18.3924	 0.0
 320	 1	 1	 -0.115	 12.252527412742241	 -19.807199999999998	 0.0
 321	 1	 8	 0.635	 24.492237649508468	 -1.4073999999999915	 0.0
 322	 1	 8	 0.635	 23.266984908234242	 -3.5295999999999936	 0.0
 323	 1	 2	 0.115	 21.76200596153765	 -5.490299999999995	 0.0
 324	 1	 7	 -0.585	 20.816479425685795	 -7.773999999999994	 0.0
 325	 1	 2	 0.115	 19.311500478989203	 -9.734699999999997	 0.0
 326	 1	 2	 0.115	 18.086247737714977	 -11.856899999999996	 0.0
 327	 1	 2	 0.115	 16.860994996440756	 -13.979099999999997	 0.0
 328	 1	 8	 0.635	 15.915468460588901	 -16.2628	 0.0
 329	 1	 7	 -0.585	 14.690215719314681	 -18.384999999999994	 0.0
 330	 1	 2	 0.115	 13.185236772618085	 -20.3457	 0.0
 331	 1	 3	 0.2	 1.7326302914336754e-16	 -1.4148	 0.0
 332	 1	 3	 0.2	 1.2252527412742245	 -3.5370000000000004	 0.0
 333	 1	 3	 0.2	 3.4652605828673508e-16	 -2.8296	 0.0
 334	 1	 3	 0.265	 -1.2252527412742236	 -3.5370000000000004	 0.0
 335	 1	 1	 0	 2.450505482548449	 -5.6592	 0.0
 336	 1	 1	 0	 1.2252527412742247	 -4.9518	 0.0
 337	 1	 3	 0.265	 6.9305211657347015e-16	 -5.6592	 0.0
 338	 1	 3	 0.265	 -1.2252527412742233	 -4.9518	 0.0
 339	 1	 3	 0.265	 -2.450505482548447	 -5.6592	 0.0
 340	 1	 3	 0.2	 3.675758223822673	 -7.7814000000000005	 0.0
 341	 1	 3	 0.2	 2.450505482548449	 -7.074000000000001	 0.0
 342	 1	 3	 0.2	 1.225252741274225	 -7.781400000000001	 0.0
 343	 1	 3	 0.265	 8.663151457168377e-16	 -7.074000000000001	 0.0
 344	 1	 1	 0	 -1.2252527412742231	 -7.781400000000001	 0.0
 345	 1	 3	 0.265	 -2.450505482548447	 -7.074000000000001	 0.0
 346	 1	 1	 0	 -3.675758223822671	 -7.781400000000002	 0.0
 347	 1	 1	 0	 4.901010965096897	 -9.9036	 0.0
 348	 1	 1	 0	 3.6757582238226734	 -9.196200000000001	 0.0
 349	 1	 1	 0	 2.4505054825484494	 -9.9036	 0.0
 350	 1	 3	 0.2	 1.2252527412742251	 -9.196200000000001	 0.0
 351	 1	 3	 0.2	 1.2128412040035728e-15	 -9.9036	 0.0
 352	 1	 3	 0.265	 -1.225252741274223	 -9.196200000000001	 0.0
 353	 1	 3	 0.2	 -2.4505054825484467	 -9.9036	 0.0
 354	 1	 3	 0.2	 -3.6757582238226707	 -9.196200000000001	 0.0
 355	 1	 3	 0.2	 -4.901010965096895	 -9.9036	 0.0
 356	 1	 1	 0	 6.126263706371121	 -12.0258	 0.0
 357	 1	 1	 0	 4.901010965096898	 -11.3184	 0.0
 358	 1	 1	 0	 3.6757582238226734	 -12.0258	 0.0
 359	 1	 1	 0	 2.4505054825484494	 -11.3184	 0.0
 360	 1	 1	 0	 1.2252527412742256	 -12.0258	 0.0
 361	 1	 3	 0.2	 1.3861042331469403e-15	 -11.3184	 0.0
 362	 1	 1	 0	 -1.2252527412742225	 -12.0258	 0.0
 363	 1	 3	 0.2	 -2.4505054825484467	 -11.3184	 0.0
 364	 1	 1	 0	 -3.6757582238226707	 -12.0258	 0.0
 365	 1	 1	 0	 -4.901010965096894	 -11.3184	 0.0
 366	 1	 3	 0.2	 -6.126263706371118	 -12.0258	 0.0
 367	 1	 1	 0	 7.351516447645346	 -14.148	 0.0
 368	 1	 1	 0	 6.126263706371121	 -13.440600000000002	 0.0
 369	 1	 1	 0	 4.901010965096898	 -14.148000000000001	 0.0
 370	 1	 1	 0	 3.6757582238226734	 -13.440600000000002	 0.0
 371	 1	 1	 0	 2.45050548254845	 -14.148000000000001	 0.0
 372	 1	 1	 0	 1.2252527412742251	 -13.440600000000002	 0.0
 373	 1	 1	 0	 1.7326302914336755e-15	 -14.148000000000001	 0.0
 374	 1	 1	 0	 -1.225252741274223	 -13.440600000000002	 0.0
 375	 1	 1	 0	 -2.4505054825484462	 -14.148000000000001	 0.0
 376	 1	 1	 0	 -3.6757582238226707	 -13.440600000000002	 0.0
 377	 1	 1	 0	 -4.901010965096894	 -14.148000000000001	 0.0
 378	 1	 3	 0.2	 -6.126263706371118	 -13.440600000000002	 0.0
 379	 1	 3	 0.2	 -7.351516447645341	 -14.148000000000003	 0.0
 380	 1	 1	 0	 8.57676918891957	 -16.270200000000003	 0.0
 381	 1	 1	 0	 7.351516447645346	 -15.562800000000001	 0.0
 382	 1	 1	 0	 6.126263706371121	 -16.270200000000003	 0.0
 383	 1	 1	 0	 4.901010965096898	 -15.562800000000003	 0.0
 384	 1	 1	 0	 3.6757582238226734	 -16.270200000000003	 0.0
 385	 1	 1	 0	 2.45050548254845	 -15.562800000000003	 0.0
 386	 1	 1	 0	 1.2252527412742256	 -16.270200000000003	 0.0
 387	 1	 1	 0	 1.905893320577043e-15	 -15.562800000000003	 0.0
 388	 1	 1	 0	 -1.2252527412742225	 -16.270200000000003	 0.0
 389	 1	 1	 0	 -2.4505054825484462	 -15.562800000000003	 0.0
 390	 1	 1	 0	 -3.6757582238226707	 -16.270200000000003	 0.0
 391	 1	 1	 0	 -4.901010965096893	 -15.562800000000003	 0.0
 392	 1	 1	 0	 -6.126263706371118	 -16.270200000000003	 0.0
 393	 1	 3	 0.2	 -7.351516447645342	 -15.562800000000005	 0.0
 394	 1	 3	 0.265	 -8.576769188919567	 -16.270200000000003	 0.0
 395	 1	 1	 0	 9.802021930193794	 -18.392400000000002	 0.0
 396	 1	 1	 0	 8.57676918891957	 -17.685000000000002	 0.0
 397	 1	 1	 0	 7.351516447645347	 -18.392400000000002	 0.0
 398	 1	 1	 0	 6.126263706371122	 -17.685000000000002	 0.0
 399	 1	 1	 0	 4.901010965096899	 -18.392400000000002	 0.0
 400	 1	 1	 0	 3.6757582238226747	 -17.685000000000002	 0.0
 401	 1	 1	 0	 2.4505054825484502	 -18.392400000000002	 0.0
 402	 1	 1	 0	 1.2252527412742267	 -17.685000000000002	 0.0
 403	 1	 3	 0.2	 2.252419378863778e-15	 -18.392400000000002	 0.0
 404	 1	 3	 0.2	 -1.2252527412742213	 -17.685000000000002	 0.0
 405	 1	 3	 0.2	 -2.450505482548446	 -18.392400000000002	 0.0
 406	 1	 3	 0.2	 -3.6757582238226685	 -17.685000000000002	 0.0
 407	 1	 3	 0.2	 -4.9010109650968925	 -18.392400000000002	 0.0
 408	 1	 3	 0.2	 -6.126263706371118	 -17.685000000000002	 0.0
 409	 1	 3	 0.2	 -7.351516447645341	 -18.392400000000002	 0.0
 410	 1	 1	 0	 -8.576769188919567	 -17.685000000000002	 0.0
 411	 1	 3	 0.2	 -9.80202193019379	 -18.392400000000002	 0.0
 412	 1	 11	 -0.115	 11.027274671468017	 -20.5146	 0.0
 413	 1	 1	 0	 9.802021930193794	 -19.8072	 0.0
 414	 1	 1	 -0.115	 8.57676918891957	 -20.5146	 0.0
 415	 1	 1	 0	 7.351516447645347	 -19.8072	 0.0
 416	 1	 11	 -0.115	 6.126263706371123	 -20.5146	 0.0
 417	 1	 1	 0	 4.901010965096899	 -19.8072	 0.0
 418	 1	 11	 -0.115	 3.675758223822675	 -20.5146	 0.0
 419	 1	 1	 0	 2.4505054825484502	 -19.8072	 0.0
 420	 1	 1	 -0.115	 1.225252741274227	 -20.5146	 0.0
 421	 1	 3	 0.2	 2.4256824080071456e-15	 -19.8072	 0.0
 422	 1	 1	 -0.115	 -1.2252527412742211	 -20.5146	 0.0
 423	 1	 1	 0	 -2.450505482548445	 -19.8072	 0.0
 424	 1	 1	 -0.115	 -3.675758223822668	 -20.5146	 0.0
 425	 1	 1	 0	 -4.901010965096893	 -19.8072	 0.0
 426	 1	 1	 -0.115	 -6.126263706371117	 -20.5146	 0.0
 427	 1	 1	 0	 -7.351516447645342	 -19.8072	 0.0
 428	 1	 1	 -0.115	 -8.576769188919567	 -20.5146	 0.0
 429	 1	 1	 0	 -9.80202193019379	 -19.8072	 0.0
 430	 1	 1	 -0.115	 -11.027274671468014	 -20.5146	 0.0
 431	 1	 8	 0.635	 11.027274671468017	 -21.9146	 0.0
 432	 1	 2	 0.115	 8.576769188919569	 -21.591600000000003	 0.0
 433	 1	 8	 0.635	 6.126263706371122	 -21.9146	 0.0
 434	 1	 8	 0.635	 3.675758223822674	 -21.9146	 0.0
 435	 1	 2	 0.115	 1.2252527412742262	 -21.591600000000003	 0.0
 436	 1	 2	 0.115	 -1.225252741274221	 -21.591600000000003	 0.0
 437	 1	 2	 0.115	 -3.67575822382267	 -21.591600000000003	 0.0
 438	 1	 2	 0.115	 -6.126263706371119	 -21.591600000000003	 0.0
 439	 1	 2	 0.115	 -8.576769188919567	 -21.591600000000003	 0.0
 440	 1	 2	 0.115	 -11.027274671468014	 -21.591600000000003	 0.0
 441	 1	 1	 0	 -1.2252527412742236	 -0.7074000000000007	 0.0
 442	 1	 1	 0	 -2.4505054825484462	 -2.829600000000002	 0.0
 443	 1	 3	 0.265	 -2.450505482548447	 -1.4148000000000014	 0.0
 444	 1	 3	 0.265	 -3.6757582238226716	 -0.7074000000000018	 0.0
 445	 1	 3	 0.2	 -3.675758223822669	 -4.951800000000002	 0.0
 446	 1	 3	 0.2	 -3.67575822382267	 -3.5370000000000026	 0.0
 447	 1	 3	 0.2	 -4.901010965096894	 -2.829600000000003	 0.0
 448	 1	 3	 0.2	 -4.901010965096895	 -1.4148000000000025	 0.0
 449	 1	 3	 0.2	 -6.12626370637112	 -0.7074000000000029	 0.0
 450	 1	 3	 0.2	 -4.9010109650968925	 -7.074000000000003	 0.0
 451	 1	 3	 0.2	 -4.9010109650968925	 -5.659200000000004	 0.0
 452	 1	 3	 0.2	 -6.126263706371117	 -4.951800000000004	 0.0
 453	 1	 3	 0.265	 -6.126263706371118	 -3.5370000000000035	 0.0
 454	 1	 3	 0.2	 -7.351516447645342	 -2.8296000000000046	 0.0
 455	 1	 3	 0.2	 -7.351516447645343	 -1.4148000000000036	 0.0