LAMMPS data file via write_data, version 17 Apr 2024, timestep = 1466, units = real

8816 atoms
13 atom types
2912 bonds
2 bond types
2224 angles
4 angle types

0 41.291 xlo xhi
0 35.83 ylo yhi
0 66.08506 zlo zhi

Masses

1 26.9815
2 28.086
3 15.9994
4 15.9994
5 1.00794
6 15.9994
7 15.9994
8 15.9994
9 24.305
10 26.9815
11 22.989768
12 15.9994
13 1.00794

Pair Coeffs # lj/cut/coul/long

1 1.3298e-06 4.27124
2 1.8405e-06 3.30203
3 0.1554 3.16554
4 0.1554 3.16554
5 0 0
6 0.1554 3.16554
7 0.1554 3.16554
8 0.1554 3.16554
9 9.03e-07 5.26432
10 1.8405e-06 3.30203
11 0.1553 2.2344
12 0.1553 3.166
13 0 0

Bond Coeffs # harmonic

1 554.13 1
2 554.13 1

Angle Coeffs # harmonic

1 15 110.1
2 15 110.1
3 6 110.1
4 33.43 109.47

Atoms # full

1 1 1 1.575 2.584987617177246 1.7143870653242779 3.6490870167667784 1 0 0
4 1 3 -1.05 3.2507311396190057 0.3154687839538924 4.800574597079652 1 0 0
5 1 3 -1.05 3.561734676435854 3.0381415497641133 4.799865523675071 1 0 0
6 1 4 -0.95 0.913394527763251 1.8479666661388614 4.6520837170025136 1 0 0
13 1 3 -1.05 0.7574205321037235 4.734707814528559 4.759606508670902 1 0 0
20 1 2 2.1 1.812943594017783 0.36344661013132806 0.8947676142809452 1 0 0
25 1 3 -1.05 5.650927700813522 5.629631694920857 0.3781417643819046 1 0 0
27 1 3 -1.05 3.0653243760371036 5.600236673077743 0.5217142344873488 1 0 0
29 1 2 2.1 4.383669066265028 4.851022785222648 0.873916171763092 1 0 0
30 1 2 2.1 4.3495349948444 1.8899403895760667 0.8854769031675775 1 0 0
31 1 3 -1.05 4.520098724861689 4.794276833580099 2.4853489848224917 1 0 0
32 1 3 -1.05 4.2454540675453085 1.9924429899952854 2.5063215904522766 1 0 0
33 1 4 -0.95 1.727280145652848 3.195612376764171 2.6236599830490825 1 0 0
34 1 3 -1.05 3.0743258343198634 1.1480006067028656 0.4050644863737993 1 0 0
35 1 3 -1.05 4.389060545767562 3.372651688723307 0.3943216337503247 1 0 0
36 1 3 -1.05 5.652198891680888 1.1062343812865096 0.5704999971869085 1 0 0
49 1 3 -1.05 5.796524621117107 4.719291818126609 4.777457396838012 1 0 0
61 1 3 -1.05 0.4821328674942468 5.683986344083357 0.3922399571224437 1 0 0
64 1 1 1.575 5.145084374152279 3.2452390151822614 3.6497878443223755 1 0 0
72 1 3 -1.05 0.4959810388574584 1.1318390010884394 0.5747477087054389 1 0 0
76 1 5 0.425 5.573393961839077 0.9420487132482027 4.664452652097417 1 0 0
77 1 5 0.425 2.902420429086024 5.451842594037731 4.580354824089431 1 0 0
79 1 5 0.425 0.38146617784135645 0.9674729969605426 4.6334866160396615 1 0 0
80 1 5 0.425 2.2490117762661193 4.076806633800954 2.673988520700926 1 0 0
22 1 3 -1.05 1.968814531110501 0.3175584624880609 2.5062405142627786 1 0 0
37 1 1 1.575 7.774234729048052 1.740196720375442 3.6308020783419312 0 0 0
40 1 3 -1.05 8.41821945345072 0.2878084544395709 4.769890151526681 0 0 0
41 1 3 -1.05 8.731584819263077 3.0506924423215587 4.775092886930252 0 0 0
42 1 4 -0.95 6.088392403914184 1.8309320543044256 4.653060742900916 1 0 0
56 1 2 2.1 6.988116326523892 0.37546171238845866 0.8735427317295059 0 0 0
63 1 3 -1.05 8.259179359431185 5.625191248535154 0.55961952336607 0 0 0
65 1 2 2.1 9.576972210022632 4.845761987191331 0.9133043125825893 0 0 0
66 1 2 2.1 9.517956037483337 1.9071724999786672 0.870622828790689 0 0 0
67 1 3 -1.05 9.71127025358067 4.794430796832949 2.493137105888049 0 0 0
68 1 3 -1.05 9.39292885316101 2.008105136699391 2.4857926140617455 0 0 0
69 1 4 -0.95 6.864011366618366 3.2257735351048873 2.6449169822241587 1 0 0
70 1 3 -1.05 8.232391137040638 1.1832817055509517 0.38738212690449886 0 0 0
71 1 3 -1.05 9.586788028489758 3.3961229724079804 0.3834997261682656 0 0 0
73 1 5 0.425 8.20792706165717 5.541263934856233 4.517090421193907 0 0 0
75 1 5 0.425 7.3592114043077235 4.11887052444692 2.7325028132010987 0 0 0
86 1 4 -0.95 11.223759842708173 1.855399208897126 4.6366476233321405 0 0 0
93 1 3 -1.05 10.970090967174638 4.784470169913018 4.790379481024903 0 0 0
108 1 1 1.575 10.348381082091375 3.2414807277392006 3.644278158563209 0 0 0
141 1 3 -1.05 10.788258646984739 5.722122471151549 0.3964163481436266 0 0 0
152 1 3 -1.05 10.809676781876782 1.1139419121558247 0.5523624265308771 0 0 0
159 1 5 0.425 10.765281508780603 0.9377600928962645 4.613874916474454 0 0 0
58 1 3 -1.05 7.137887116390182 0.3240757326065166 2.4953520524554 0 0 0
81 1 1 1.575 13.027797950086127 1.8181877870604408 3.6524003539994405 0 0 0
84 1 3 -1.05 13.547025710925443 0.29078202612295506 4.7719150036486715 0 0 0
85 1 6 -1.1808 13.789039855901782 3.0763607047191477 4.785814808801102 0 0 0
100 1 2 2.1 12.144779283601256 0.38249428436033145 0.870602547719064 0 0 0
105 1 3 -1.05 16.005018011724957 5.652939315600787 0.3618529995245434 0 0 0
107 1 3 -1.05 13.398320404695031 5.5826202877117606 0.5401470174802535 0 0 0
109 1 2 2.1 14.745161589205098 4.880675070846652 0.9383819768300684 0 0 0
110 1 2 2.1 14.652791970233226 1.8958725136334926 0.9608920438772667 0 0 0
111 1 6 -1.1808 14.884102811295733 4.894437188441171 2.4722223448802314 0 0 0
112 1 6 -1.1808 14.473386975679766 1.9424799655975769 2.4932496464806992 0 0 0
113 1 4 -0.95 12.004709823831847 3.2602973495799876 2.6211638807272033 0 0 0
114 1 3 -1.05 13.390102070866027 1.1780099823015935 0.3684173885129966 0 0 0
115 1 3 -1.05 14.769506466619397 3.3863634449967535 0.4173169787123882 0 0 0
116 1 3 -1.05 15.966096793181176 1.1117967559717736 0.6041190950193278 0 0 0
122 1 8 -1.0808 16.510879085058495 1.849949240738062 4.765617075802861 0 0 0
129 1 6 -1.1808 16.225325712746212 4.884461345098456 4.7626673410915705 0 0 0
136 1 2 2.1 17.291310364035194 0.3819181178739798 0.9507261279864488 0 0 0
144 1 9 1.36 15.514837191233577 3.2828368221745783 3.6436277505502663 0 0 0
149 1 8 -1.0808 17.31153516091844 3.0937234402824383 2.5980041577291964 0 0 0
156 1 5 0.425 15.946720257894176 0.9991639305761276 4.870902050493111 0 0 0
157 1 5 0.425 13.32894961231645 5.4702923843908 4.653051008057498 0 0 0
160 1 5 0.425 12.527307899327393 4.1389842013042015 2.7156134203286535 0 0 0
102 1 3 -1.05 12.266624848133857 0.29846035584560027 2.4801160710902863 0 0 0
138 1 3 -1.05 17.434572894438485 0.26993217803153036 2.531300725935901 0 0 0
155 1 5 0.425 17.81033858263246 3.9861788232037756 2.6713201984160784 0 0 0
117 1 1 1.575 17.980544655488423 1.7381216147524883 3.675660001491543 0 0 0
120 1 3 -1.05 18.7378792958341 0.2552607949683746 4.781978093526787 0 0 0
121 1 3 -1.05 19.090832481210008 3.0763885431968707 4.78499022806069 0 0 0
143 1 3 -1.05 18.55608247747427 5.571426816997099 0.6265941377276351 0 0 0
145 1 2 2.1 19.884724617125155 4.837051603839234 0.9545282176381982 0 0 0
146 1 2 2.1 19.851624850738325 1.8697476715936718 0.9341240606177703 0 0 0
147 1 3 -1.05 20.03479947751468 4.754270682238646 2.5536676897449753 0 0 0
148 1 3 -1.05 19.807705890691352 1.952823306441926 2.5195891660412997 0 0 0
150 1 3 -1.05 18.558315714979532 1.1523200632832233 0.4459289564541658 0 0 0
151 1 3 -1.05 19.89789715119448 3.362197091751792 0.40989128345362563 0 0 0
153 1 5 0.425 18.430260257728488 5.353708016428895 4.730106916361511 0 0 0
161 1 1 1.575 23.27648725439515 1.7471448950577064 3.655831614898118 0 0 0
166 1 4 -0.95 21.58612101601217 1.8471525145843348 4.700996961868063 0 0 0
173 1 3 -1.05 21.360427061772068 4.738085382125558 4.804608580363528 0 0 0
180 1 2 2.1 22.481558021000023 0.36834976725860724 0.899384501016621 0 0 0
188 1 1 1.575 20.64198799174696 3.2086540283367264 3.656595496844497 0 0 0
193 1 4 -0.95 22.359780849628947 3.198435144217367 2.6534565153292236 0 0 0
221 1 3 -1.05 21.141376945446293 5.620037716634021 0.45108305387179787 0 0 0
232 1 3 -1.05 21.145130344573627 1.091058762488991 0.5474653558509233 0 0 0
239 1 5 0.425 21.08071044286566 0.9522465023652209 4.716539533019088 0 0 0
240 1 5 0.425 22.86696801318896 4.087468553693224 2.706148287200227 0 0 0
182 1 3 -1.05 22.610758442639682 0.3236297996899293 2.515062385963719 0 0 0
187 1 3 -1.05 23.723112282167282 5.563787294168646 0.6138397217789944 0 0 0
194 1 3 -1.05 23.72563392754682 1.1792384755429453 0.4199951230184125 0 0 0
164 1 3 -1.05 23.88826037431943 0.2881397788077737 4.805564944083779 0 0 0
165 1 3 -1.05 24.186335314574404 3.066006074731513 4.8118153347527 0 0 0
185 1 3 -1.05 26.315365734592493 5.6391225206197975 0.3858982579519821 0 0 0
189 1 2 2.1 25.07295017274565 4.855920410771371 0.9346946256382743 0 0 0
190 1 2 2.1 25.01237446571582 1.8995059352478147 0.9246293136298713 0 0 0
191 1 3 -1.05 25.224403053950088 4.808853293216784 2.5280744750737383 0 0 0
192 1 3 -1.05 24.872519740746753 1.9961024940300693 2.53546062312793 0 0 0
195 1 3 -1.05 25.082223530882317 3.38050737558305 0.43010503632921115 0 0 0
196 1 3 -1.05 26.294919961023858 1.0923395507911593 0.6118471784981803 0 0 0
197 1 1 1.575 28.56647876995629 1.7461415591673604 3.6803789198109693 0 0 0
200 1 3 -1.05 29.05000629196341 0.23778304429265004 4.834965260931096 0 0 0
201 1 6 -1.1808 29.284672597919197 2.9812965597804464 4.8407202173521275 0 0 0
202 1 4 -0.95 26.669606400291983 1.8131857845625616 4.700595390868393 0 0 0
209 1 3 -1.05 26.482558313956776 4.721287951371656 4.813847281694173 0 0 0
216 1 2 2.1 27.637011341587936 0.3620712206407299 0.9274820833025181 0 0 0
223 1 3 -1.05 28.874651173207788 5.593869312707318 0.5569714734467027 0 0 0
224 1 1 1.575 25.891090358155424 3.2264405199447586 3.6856582843456613 0 0 0
229 1 4 -0.95 27.506855992078805 3.1935862811019584 2.6667349103457454 0 0 0
230 1 3 -1.05 28.86974693382654 1.1538933989154556 0.4063339011380753 0 0 0
233 1 5 0.425 28.796120237913932 5.46282248139504 4.640978708291636 0 0 0
235 1 5 0.425 28.06793363969952 4.052869930138436 2.694736335467258 0 0 0
236 1 5 0.425 26.218003018085437 0.8972501299956107 4.611215487069526 0 0 0
237 1 5 0.425 23.654061777445136 5.4066673352072465 4.625743625978899 0 0 0
218 1 3 -1.05 27.758200639895797 0.2798064106927635 2.5375778927234736 0 0 0
225 1 2 2.1 30.21872019952922 4.871824530035234 0.9610168563345622 0 0 0
226 1 2 2.1 30.145826455727068 1.8916801084351385 0.9799648951639933 0 0 0
227 1 6 -1.1808 30.344873601221188 4.90224512501942 2.499218017136397 0 0 0
228 1 6 -1.1808 29.985798810248294 1.8872823971558446 2.520015577502626 0 0 0
231 1 3 -1.05 30.202185202716425 3.3775747482818668 0.48883452625788865 0 0 0
241 1 1 1.575 33.50148574898495 1.7885571707573662 3.664333863981301 0 0 0
244 1 3 -1.05 34.24278050039363 0.3111498199646966 4.754527321532731 0 0 0
245 1 3 -1.05 34.55837196474765 3.0784899786469784 4.774075826636567 0 0 0
246 1 8 -1.0808 31.990012594603446 1.8090616042609793 4.744464867871388 0 0 0
253 1 6 -1.1808 31.647276643331143 4.855588301761731 4.813692557295585 0 0 0
260 1 2 2.1 32.79299638908894 0.3873032841667934 0.9406524142627134 0 0 0
267 1 3 -1.05 34.023787564908574 5.562255652266118 0.5512335097282826 0 0 0
268 1 9 1.36 31.014486678138308 3.2704693538243155 3.667121536204893 0 0 0
269 1 2 2.1 35.35295604160603 4.837806822055425 0.9190839416699321 0 0 0
270 1 2 2.1 35.338773801542054 1.8878389619128861 0.8792622334385132 0 0 0
272 1 3 -1.05 35.28621327769915 2.000400085414769 2.465873361738851 0 0 0
273 1 8 -1.0808 32.776790020464695 3.1338414654531017 2.605085353737976 0 0 0
274 1 3 -1.05 34.02985941637786 1.172871166169797 0.4192131979098761 0 0 0
301 1 3 -1.05 31.455029521487845 5.6433810759627345 0.33570718439054437 0 0 0
312 1 3 -1.05 31.42960685033713 1.0802414927672404 0.5568264638277343 0 0 0
317 1 5 0.425 33.89458406511348 5.446249644767615 4.498739896168918 0 0 0
319 1 5 0.425 31.48400846529985 0.9167505293866259 4.709273901459693 0 0 0
320 1 5 0.425 33.31181776412121 4.009242863314429 2.6386267278579516 0 0 0
275 1 3 -1.05 35.3767631506001 3.376551889210884 0.3289236970097099 0 0 0
262 1 3 -1.05 32.89262027276456 0.31852771677297026 2.5177182024169906 0 0 0
28 1 1 1.575 0.014435106232153763 3.3163152740174198 3.6381022597339157 1 0 0
265 1 3 -1.05 36.593675119052556 5.64428574851454 0.3685107342273426 0 0 0
271 1 3 -1.05 35.47362835885355 4.73996729282562 2.4856301206998284 0 0 0
276 1 3 -1.05 36.62162941871257 1.1105931844945478 0.4767193697519635 0 0 0
277 1 1 1.575 38.7448259790875 1.7430382695146298 3.6228818569025347 0 0 0
280 1 3 -1.05 39.42294794103294 0.37911915640321897 4.774060886749542 0 0 0
281 1 3 -1.05 39.709075019437094 3.1222465470162306 4.775465864937277 0 0 0
282 1 4 -0.95 37.07142425749949 1.8684083242463019 4.667793868226833 0 0 0
289 1 3 -1.05 36.77815060823391 4.747814192613618 4.790049646725711 0 0 0
296 1 2 2.1 37.95853456889961 0.3892988632237369 0.8677599161940186 0 0 0
303 1 3 -1.05 39.173958189720565 5.570353454219305 0.6146328016812131 0 0 0
304 1 1 1.575 36.13656226841 3.2660975137595427 3.6200122873083815 0 0 0
305 1 2 2.1 40.5368958474317 4.883658445164801 0.9197569709812455 0 0 0
306 1 2 2.1 40.48821849666089 1.9135676699418742 0.9032495074935591 0 0 0
307 1 3 -1.05 40.7159054977689 4.778119050581305 2.4999637635372953 0 0 0
308 1 3 -1.05 40.36065217593743 2.0325433620626225 2.492009491840584 0 0 0
309 1 4 -0.95 37.83703786129578 3.276157026269739 2.6421203997992118 0 0 0
310 1 3 -1.05 39.21279133385123 1.1942768857920802 0.375836362246913 0 0 0
311 1 3 -1.05 40.545128501490076 3.4032830106326175 0.3622379602818127 0 0 0
313 1 5 0.425 39.26340598367805 5.385588409282647 4.628373570170386 0 0 0
315 1 5 0.425 38.321116104698035 4.174986131527572 2.7561102109439006 0 0 0
316 1 5 0.425 36.60817234659217 0.9500093608221922 4.607632537495045 0 0 0
298 1 3 -1.05 38.04808069908454 0.42975910723325694 2.4640807874990127 0 0 0
14 1 3 -1.05 1.0148899060262009 7.577306385006024 4.740246872983646 1 0 0
15 1 4 -0.95 3.495379063449047 6.287659098910312 4.642652748741361 1 0 0
19 1 1 1.575 2.580493817319589 7.850563361012663 3.6161536972011374 1 0 0
21 1 2 2.1 1.7752324628983247 6.410889607823145 0.8851294476639774 1 0 0
23 1 3 -1.05 1.7035037828064203 6.4994230446617 2.4655393007822926 1 0 0
24 1 4 -0.95 4.321619709799179 7.6699375216730905 2.6134776974888663 1 0 0
26 1 3 -1.05 1.8577142937491877 7.88573367133915 0.3280515890162008 1 0 0
46 1 1 1.575 5.130573500637364 6.232116501225934 3.6582853881841726 1 0 0
78 1 5 0.425 4.840291796815624 8.55518055092419 2.69570979605475 1 0 0
321 1 1 1.575 2.5616117040685267 10.970661284175899 3.5882238922251033 1 0 0
324 1 3 -1.05 3.340419505182063 9.133622546350239 4.766656011644697 1 0 0
326 1 8 -1.0808 1.0668683535962358 10.765329719235513 4.632567431944749 1 0 0
340 1 2 2.1 1.8177854831504558 9.380109642782376 0.906275366652188 1 0 0
342 1 3 -1.05 1.9764606852159412 9.244278134293836 2.465517912157605 1 0 0
350 1 2 2.1 4.356342801298826 10.884337754289904 0.9051232583922141 1 0 0
352 1 3 -1.05 4.212971632253624 10.957838196668906 2.474418815499206 1 0 0
354 1 3 -1.05 3.0614861441375756 10.158309821094592 0.36794136623322365 1 0 0
356 1 3 -1.05 5.6366174967235905 10.042280239566491 0.5579498226808326 1 0 0
392 1 3 -1.05 0.45353155087044156 10.041870802170386 0.5269542648568435 1 0 0
396 1 5 0.425 5.338998385938449 10.059987465533002 4.615800068691255 1 0 0
399 1 5 0.425 0.5112913234823551 9.912411406441493 4.501338485229137 1 0 0
50 1 3 -1.05 6.123034640882716 7.494165473207702 4.801626257129081 1 0 0
51 1 4 -0.95 8.725359960941686 6.426164994158931 4.4721843133388814 0 0 0
55 1 1 1.575 7.6165799790910835 7.861939661432724 3.6885640303242972 0 0 0
57 1 2 2.1 6.90612114934971 6.357819398002224 0.908763510406854 0 0 0
59 1 3 -1.05 6.795580721795798 6.425155219544944 2.4870822541443123 1 0 0
60 1 4 -0.95 9.615789719880356 7.805593136545633 2.346142767305828 0 0 0
62 1 3 -1.05 7.051363348697034 7.83066894077917 0.35958442098050564 0 0 0
90 1 1 1.575 10.438340385328425 6.2550292756556125 3.6624787976325353 0 0 0
94 1 3 -1.05 11.34426295773215 7.545815794026434 4.801414248374288 0 0 0
154 1 5 0.425 10.054807342235732 8.682941440921253 2.6622515439007146 0 0 0
357 1 9 1.36 7.721176260716778 10.762940496644353 3.6265798069312836 0 0 0
360 1 6 -1.1808 8.379425288131994 9.127890641940784 4.766088685816356 0 0 0
362 1 8 -1.0808 5.96015766096398 10.875943141771238 4.65980757817171 1 0 0
376 1 2 2.1 6.944869897402893 9.332207915294774 0.9683861245877048 0 0 0
378 1 6 -1.1808 7.054265907130528 9.131427051268854 2.487057620832741 0 0 0
386 1 2 2.1 9.530232850417075 10.897070681512641 0.9661396990064504 0 0 0
388 1 6 -1.1808 9.46192474960304 10.967603561604948 2.489791693189459 0 0 0
390 1 3 -1.05 8.275020341579898 10.032929478232637 0.4533903542414392 0 0 0
406 1 4 -0.95 11.175755508079872 10.746529599455476 4.77607930094157 0 0 0
472 1 3 -1.05 10.793440929836887 9.99306885060455 0.5598705833286276 0 0 0
479 1 5 0.425 10.597232840172602 9.91218834576063 4.648042596551779 0 0 0
7901 985 11 1 9.504481411473959 7.955974419680435 0.08768469776855664 0 0 1
95 1 4 -0.95 13.872197959419685 6.340926661294396 4.675350941680436 0 0 0
99 1 1 1.575 13.010233671953586 7.864310227884054 3.801737814819549 0 0 0
101 1 2 2.1 12.135923551328421 6.370730742997148 0.9473292023067224 0 0 0
103 1 3 -1.05 11.982692636255576 6.386015397415862 2.5224741191068447 0 0 0
104 1 4 -0.95 14.584488247681128 7.7637043527949405 2.6527789428408126 0 0 0
106 1 3 -1.05 12.124952413901951 7.863922774524291 0.45377003919353004 0 0 0
126 1 1 1.575 15.513026120973084 6.181099631952414 3.6350017384382647 0 0 0
130 1 3 -1.05 16.509904726001896 7.6466709054820985 4.788457779546187 0 0 0
137 1 2 2.1 17.263287602028996 6.4089612573333286 0.9143696747556777 0 0 0
139 1 3 -1.05 17.113763007798614 6.540509218318621 2.5053132768356807 0 0 0
142 1 3 -1.05 17.358242042654492 7.870495131423928 0.3829529693892862 0 0 0
158 1 5 0.425 15.106004478970178 8.64693149066654 2.693842595606703 0 0 0
401 1 1 1.575 12.811818578081523 10.7101765831643 3.8409653504376764 0 0 0
404 1 7 -1.1688 13.520142919566833 9.281510686334078 4.804986686436719 0 0 0
420 1 2 2.1 12.176551327747408 9.3676290698848 0.9867137195108958 0 0 0
422 1 3 -1.05 12.25363871931188 9.261906328306564 2.555774660234967 0 0 0
430 1 2 2.1 14.723086521013714 10.878980582964672 0.9030614839662623 0 0 0
432 1 3 -1.05 14.689606466499779 10.96784074853917 2.492846869271879 0 0 0
434 1 3 -1.05 13.414485553351774 10.129047562048122 0.46446465346318433 0 0 0
436 1 3 -1.05 15.99687480329701 10.063591063150833 0.5101626576718019 0 0 0
442 1 4 -0.95 16.4725932422506 10.867064469772282 4.6419810167766125 0 0 0
456 1 2 2.1 17.370036019295256 9.392993417051782 0.8201754115692221 0 0 0
458 1 3 -1.05 17.506704563305917 9.33534658048157 2.4536335097911555 0 0 0
476 1 5 0.425 15.916026347770611 10.007123233695603 4.720160597799393 0 0 0
131 1 4 -0.95 19.02078967328175 6.1539832318086605 4.996742345388983 0 0 0
135 1 1 1.575 17.95539631646183 7.923559346183396 3.59265311262522 0 0 0
140 1 4 -0.95 19.684653753685883 7.552519954437748 2.8079496720474113 0 0 0
170 1 1 1.575 20.68594065804867 6.20850969730907 3.706300658077054 0 0 0
174 1 3 -1.05 21.649516586056357 7.526761965429376 4.814515651521255 0 0 0
179 1 1 1.575 23.255209521341236 7.762079663594136 3.6608310210611497 0 0 0
181 1 2 2.1 22.427883308858043 6.361666387811274 0.9338034537978905 0 0 0
183 1 3 -1.05 22.290724672589832 6.454651579452864 2.542277009724378 0 0 0
186 1 3 -1.05 22.48860180855065 7.833149716107152 0.4344215980660985 0 0 0
234 1 5 0.425 20.17408284548117 8.428597051188273 2.577912181069013 0 0 0
437 1 1 1.575 18.1486020320297 10.865436597947332 3.4816511796091203 0 0 0
440 1 3 -1.05 18.75505916234723 9.21230468316888 4.785802477283436 0 0 0
466 1 10 1.575 19.868762572221442 10.89853415758282 0.8748866522689763 0 0 0
468 1 7 -1.1688 19.71943098455808 10.997963678141598 2.5128092315923727 0 0 0
470 1 7 -1.1688 18.57656101099533 10.129809190747466 0.2782217971182658 0 0 0
481 1 1 1.575 23.247001295121002 10.757304174642934 3.6631076385762698 0 0 0
486 1 4 -0.95 21.58087397080776 10.757281409555691 4.653130741258296 0 0 0
500 1 2 2.1 22.451894839727693 9.331989836930868 0.9385836627753464 0 0 0
502 1 3 -1.05 22.612037939357688 9.252460582988382 2.5347372268900203 0 0 0
552 1 7 -1.1688 21.176885803717447 10.018045198292894 0.5140603524882953 0 0 0
559 1 5 0.425 21.037118877775217 9.897172201221807 4.522327424445366 0 0 0
514 1 3 -1.05 23.750128448345123 10.076615512498973 0.4199499278881076 0 0 0
175 1 4 -0.95 24.152147826366036 6.30204678363064 4.67743926058131 0 0 0
184 1 4 -0.95 24.92142277748093 7.676742609218272 2.646380268711551 0 0 0
206 1 1 1.575 25.886704672722185 6.234295231887828 3.6752734741770086 0 0 0
210 1 3 -1.05 26.741596441647744 7.532324615810738 4.806112990450688 0 0 0
211 1 4 -0.95 29.267840757022743 6.372175853834849 4.68229418566621 0 0 0
215 1 1 1.575 28.49024222716088 7.774191441285263 3.6448693126263043 0 0 0
217 1 2 2.1 27.59699551543359 6.39296553384081 0.9144978850749581 0 0 0
219 1 3 -1.05 27.450625640116847 6.468584394092527 2.513592592678619 0 0 0
222 1 3 -1.05 27.625464666489428 7.872850908863436 0.4262478405912235 0 0 0
238 1 5 0.425 25.44611462600677 8.558650408806653 2.659022053284618 0 0 0
484 1 3 -1.05 23.905977066159707 9.192455169055158 4.811211103247712 0 0 0
510 1 2 2.1 25.004879537663292 10.85268720806557 0.9709848233372966 0 0 0
512 1 3 -1.05 24.85847333054812 10.901865511951646 2.5584350675593837 0 0 0
516 1 3 -1.05 26.307307071528154 10.079101649531173 0.6216782155976146 0 0 0
517 1 1 1.575 28.4560037074142 10.76907448785622 3.6816792600286026 0 0 0
520 1 3 -1.05 29.045607546399218 9.234746841172825 4.805157779915506 0 0 0
522 1 4 -0.95 26.70481916673416 10.78942318998282 4.69095325414484 0 0 0
536 1 2 2.1 27.645974485465686 9.34790761121969 0.9403374505718083 0 0 0
538 1 3 -1.05 27.774661827848423 9.266646220057025 2.5353679280433026 0 0 0
550 1 3 -1.05 28.892807290350927 10.1328961654961 0.41535561196438764 0 0 0
556 1 5 0.425 26.204068955273037 9.899832206504277 4.596764972308224 0 0 0
220 1 4 -0.95 30.093273289485097 7.737760377539038 2.631152805213764 0 0 0
250 1 1 1.575 31.09328348029308 6.1648112354362565 3.6485708764236278 0 0 0
254 1 3 -1.05 31.91763453325176 7.556790532571057 4.812857355376509 0 0 0
255 1 4 -0.95 34.43553490505268 6.305603454929429 4.648076534226372 0 0 0
259 1 1 1.575 33.6116481484139 7.854593870687827 3.6675663608610565 0 0 0
261 1 2 2.1 32.739637961427896 6.371786659753559 0.9054085372046343 0 0 0
263 1 3 -1.05 32.59914313926746 6.425795100389017 2.4879357115666303 0 0 0
264 1 4 -0.95 35.26641694734425 7.689172247678431 2.619222850260545 0 0 0
266 1 3 -1.05 32.79385791951902 7.843751096714225 0.39239323578967317 0 0 0
314 1 5 0.425 30.704477696505286 8.56187403528996 2.69546035107618 0 0 0
546 1 2 2.1 30.18769773941751 10.869518804496654 0.9717059214181821 0 0 0
548 1 3 -1.05 29.98531894908173 10.949577101394226 2.5526113165685484 0 0 0
561 1 9 1.36 33.60179162188865 10.738581562108914 3.6772961181604846 0 0 0
564 1 6 -1.1808 34.25501810488564 9.131587704006819 4.835271485330879 0 0 0
566 1 8 -1.0808 31.78650585174257 10.875596838598044 4.707428423598895 0 0 0
580 1 2 2.1 32.79689210232491 9.302432836523238 0.9991242529430686 0 0 0
582 1 6 -1.1808 32.91784746934207 9.152158397860957 2.531915289156442 0 0 0
590 1 2 2.1 35.338494113092594 10.864231799841143 0.9692118062943723 0 0 0
592 1 6 -1.1808 35.28503994399087 10.95269280684783 2.5005255388608902 0 0 0
594 1 3 -1.05 34.03198669955895 10.118850622244702 0.4496954454125712 0 0 0
632 1 3 -1.05 31.455059964530967 10.043719288913916 0.6567812009727296 0 0 0
639 1 5 0.425 31.325965285055876 9.965275792393395 4.601545843994135 0 0 0
10 1 1 1.575 41.27145276688441 6.359913761777328 3.6137605697829036 0 0 0
74 1 5 0.425 40.8755135395639 8.591979656890544 2.621559151017707 0 0 0
286 1 1 1.575 36.2231454526025 6.305209075579239 3.665927965099926 0 0 0
290 1 6 -1.1808 37.010369953183336 7.50765239494131 4.824865130352105 0 0 0
291 1 8 -1.0808 39.76751795324856 6.2774545619548245 4.679536120889867 0 0 0
295 1 9 1.36 38.72455433878205 7.7725162020771705 3.6551793833140076 0 0 0
297 1 2 2.1 37.878830489579805 6.355480724973113 1.0050842344976092 0 0 0
299 1 6 -1.1808 37.68425063725727 6.372354519622346 2.5215037985454254 0 0 0
300 1 8 -1.0808 40.48886384724234 7.640693828095698 2.5430759517346373 0 0 0
302 1 3 -1.05 37.942096721728134 7.836100099625058 0.4402996212453719 0 0 0
318 1 5 0.425 35.79928308010837 8.568592143644608 2.659363123141077 0 0 0
596 1 3 -1.05 36.60875307166794 10.054526751343001 0.48953822835593896 0 0 0
597 1 1 1.575 38.84403931830736 10.704603970028334 3.6745614076064017 0 0 0
600 1 6 -1.1808 39.376135226590605 9.304368464205568 4.809023113702281 0 0 0
602 1 4 -0.95 36.988910752694544 10.753082767930106 4.715703208051805 0 0 0
616 1 2 2.1 37.94171301562167 9.352751787347442 0.9653874157981709 0 0 0
618 1 6 -1.1808 38.036951386709816 9.33604631390665 2.4863952976269643 0 0 0
626 1 2 2.1 40.446644639645676 10.86177528725004 0.9609519472485243 0 0 0
628 1 6 -1.1808 40.29754303061045 10.857760723719139 2.481394552458795 0 0 0
630 1 3 -1.05 39.191625212575815 10.086357279356617 0.34813467620202565 0 0 0
636 1 5 0.425 36.53546660985167 9.850695951284234 4.542088092000385 0 0 0
325 1 3 -1.05 3.5222521894655276 12.093585518408645 4.745043380613724 1 0 0
353 1 8 -1.0808 1.7451986829455848 12.163634107376936 2.483955204025945 1 0 0
384 1 1 1.575 5.259343919024065 12.279329186558911 3.617186986729952 1 0 0
330 1 1 1.575 0.05462219150504437 15.189042386727758 3.65251702753628 1 0 0
333 1 6 -1.1808 0.7401947414098471 13.776950736071761 4.802804846802649 1 0 0
334 1 6 -1.1808 0.8901891297948203 16.498293172095817 4.794044005900878 1 0 0
335 1 8 -1.0808 3.6186514935716523 15.262220692169569 4.679584962413923 1 0 0
339 1 9 1.36 2.567980076065533 16.700433613631255 3.618799214827758 1 0 0
341 1 2 2.1 1.7368967415790026 15.289967777575773 0.9543360028501516 1 0 0
343 1 6 -1.1808 1.6237221134504394 15.288262349163402 2.4773001563695884 1 0 0
344 1 8 -1.0808 4.3397582237040595 16.586720990595452 2.494829411106722 1 0 0
345 1 3 -1.05 5.634500809487007 14.639394872405475 0.35172904633272095 1 0 0
346 1 3 -1.05 1.861364833308647 16.78224178656716 0.42883608513686655 1 0 0
347 1 3 -1.05 3.0445075120003096 14.498682368441028 0.5113282947348975 1 0 0
349 1 2 2.1 4.403894461135425 13.837671585887612 0.9100689667245621 1 0 0
351 1 3 -1.05 4.5511866221694435 13.76099274953065 2.4707038846594527 1 0 0
355 1 3 -1.05 4.416852464054438 12.348294045986416 0.33972126914679923 1 0 0
366 1 1 1.575 5.101372901427845 15.299313582302624 3.586171493715155 1 0 0
381 1 3 -1.05 0.4685358881557339 14.573853715584058 0.342131257035687 1 0 0
397 1 5 0.425 3.0242756434832683 14.425039581205139 4.592172872680848 1 0 0
398 1 5 0.425 4.809619252846563 17.496836249332056 2.564899177882667 1 0 0
400 1 5 0.425 2.0471770223067804 13.145910332012072 2.5894910616818065 1 0 0
369 1 3 -1.05 5.903683571954683 13.685975526978956 4.74010163071298 1 0 0
361 1 6 -1.1808 8.712629947605809 12.13018886381047 4.7703568232479805 0 0 0
389 1 8 -1.0808 6.763150155668496 12.17198176257839 2.494367038841056 0 0 0
428 1 1 1.575 10.155659500956512 12.355022625900673 3.622642746148063 0 0 0
370 1 3 -1.05 6.074221125026484 16.570043595410123 4.708705825770653 1 0 0
371 1 8 -1.0808 8.549183630110239 15.369602946958189 4.660250375297529 0 0 0
375 1 1 1.575 7.806489709637679 16.68106937465914 3.5727827742836435 0 0 0
377 1 2 2.1 6.951197143469106 15.346320582343221 0.8733909765596855 0 0 0
379 1 3 -1.05 6.835592645216492 15.428488963487878 2.449932191100291 0 0 0
380 1 8 -1.0808 9.344182807351542 16.707573580101183 2.524980106015687 0 0 0
382 1 3 -1.05 6.999309696737584 16.820242449003857 0.3385756171573693 0 0 0
383 1 3 -1.05 8.22337380091738 14.520537950807215 0.5001275724290646 0 0 0
385 1 2 2.1 9.563211623502578 13.800971766394998 0.8880944347127511 0 0 0
387 1 6 -1.1808 9.671305093278933 13.662447087325923 2.4240934475343487 0 0 0
391 1 3 -1.05 9.569257164772681 12.30501786090962 0.32217565864811587 0 0 0
393 1 5 0.425 8.032069993972609 14.483206909633353 4.584419252858955 0 0 0
395 1 5 0.425 7.311598462269013 13.042245160054557 2.522346318696541 0 0 0
410 1 9 1.36 10.32154244426219 15.230789635337995 3.583298652582294 0 0 0
413 1 6 -1.1808 10.978905170880092 13.616259871223056 4.760595981276422 0 0 0
414 1 6 -1.1808 11.333747096471445 16.556077792804793 4.771387405805173 0 0 0
461 1 3 -1.05 10.826525567399933 14.589126520958251 0.38353714870554745 0 0 0
474 1 5 0.425 9.885799688428872 17.577570769841362 2.5952705190161987 0 0 0
405 1 3 -1.05 13.881642891532186 11.989700239863321 4.8085633574661975 0 0 0
433 1 4 -0.95 12.076352334404588 12.061484031398017 2.6772580557827395 0 0 0
464 1 1 1.575 15.466785986593122 12.252537585203761 3.6381471466993305 0 0 0
469 1 4 -0.95 17.216372576641675 12.257734477514994 2.5982785965769515 0 0 0
415 1 4 -0.95 13.84362977387758 15.230212866892877 4.642092371935272 0 0 0
419 1 1 1.575 12.749878596193565 16.79983916970135 3.6007125897949854 0 0 0
421 1 2 2.1 12.110423902719202 15.350192045502224 0.898652565924932 0 0 0
423 1 6 -1.1808 12.056590541034229 15.464535987698167 2.4364068183523693 0 0 0
424 1 4 -0.95 14.700770168663153 16.638182073245353 2.5796522348833215 0 0 0
425 1 3 -1.05 16.003003266159784 14.628339542849465 0.3795226645146074 0 0 0
426 1 3 -1.05 12.144830658594284 16.811052932954297 0.2910599088653181 0 0 0
427 1 3 -1.05 13.41370453437356 14.549107643831867 0.5064355292034824 0 0 0
429 1 2 2.1 14.735823998710911 13.834078425646235 0.8774976209240554 0 0 0
431 1 3 -1.05 14.872114148642607 13.75838237572415 2.4785228806037862 0 0 0
435 1 3 -1.05 14.760469848355646 12.348808861239549 0.37691753511062054 0 0 0
446 1 1 1.575 15.442715095752847 15.26324262461139 3.632771222798103 0 0 0
449 1 3 -1.05 16.13616902321801 13.689904755450142 4.78157405634535 0 0 0
450 1 3 -1.05 16.436882986816958 16.48039425768396 4.8073560764401435 0 0 0
457 1 2 2.1 17.28365783859615 15.339060786604977 0.959100596991411 0 0 0
459 1 3 -1.05 17.157093177564896 15.384088024065974 2.5226166750866996 0 0 0
462 1 3 -1.05 17.320042518326197 16.807930207983166 0.3718412061940104 0 0 0
477 1 5 0.425 13.254406594840365 14.398958126143963 4.529321011867511 0 0 0
478 1 5 0.425 15.15241367411496 17.552828819580522 2.7001389699234024 0 0 0