LAMMPS data file via write_data, version 17 Apr 2024, timestep = 1, units = real

128 atoms
1 atom types
192 bonds
1 bond types
384 angles
1 angle types
768 dihedrals
1 dihedral types
128 impropers
1 improper types

0 19.604043860387584 xlo xhi
0 16.977600000000002 ylo yhi
-4 3.4827 zlo zhi

Masses

1 12.011

Pair Coeffs # lj/cut

1 0.07 3.55

Bond Coeffs # harmonic

1 469 1.4

Angle Coeffs # harmonic

1 63 120

Dihedral Coeffs # opls

1 0 7.25 0 0

Improper Coeffs # harmonic

1 5 180

Atoms # full

1 1 1 0 19.604043860387566 1.907904541086594e-14 8.178883625495533e-20 -1 0 0
2 1 1 0 1.1355562025637999e-14 1.4147999999999705 1.4313046344617184e-19 0 0 0
3 1 1 0 1.2252527412742333 2.1222000000000065 8.178883625495533e-20 0 0 0
4 1 1 0 1.2252527412742213 3.536999999999985 0 0 0 0
5 1 1 0 19.604043860387574 4.244400000000022 0 -1 0 0
6 1 1 0 19.60404386038758 5.659200000000002 2.2491929970112717e-19 -1 0 0
17 1 1 0 2.450505482548476 5.41279029515521e-15 0 0 0 0
18 1 1 0 2.4505054825484227 1.4147999999999767 0 0 0 0
19 1 1 0 3.6757582238226827 2.122200000000011 1.1501555098353094e-20 0 0 0
20 1 1 0 3.67575822382268 3.536999999999979 0 0 0 0
21 1 1 0 2.45050548254844 4.244400000000019 0 0 0 0
22 1 1 0 2.450505482548456 5.659200000000003 3.578261586154296e-20 0 0 0
33 1 1 0 4.901010965096917 1.0358779753039227e-16 3.067081359560825e-20 0 0 0
34 1 1 0 4.901010965096889 1.4147999999999699 5.622982492528179e-20 0 0 0
35 1 1 0 6.126263706371095 2.122200000000014 1.0223604531869417e-19 0 0 0
36 1 1 0 6.126263706371117 3.536999999999999 0 0 0 0
37 1 1 0 4.901010965096901 4.244400000000006 0 0 0 0
38 1 1 0 4.901010965096904 5.659200000000009 8.019139804685074e-20 0 0 0
49 1 1 0 7.35151644764536 16.977599999999992 0 0 -1 0
50 1 1 0 7.351516447645346 1.4147999999999916 0 0 0 0
51 1 1 0 8.576769188919581 2.1221999999999954 9.201244078682475e-20 0 0 0
52 1 1 0 8.576769188919549 3.5369999999999955 0 0 0 0
53 1 1 0 7.351516447645351 4.2444 0 0 0 0
54 1 1 0 7.351516447645342 5.65920000000002 0 0 0 0
65 1 1 0 9.802021930193819 5.515184806344148e-15 8.690063852089004e-20 0 0 0
66 1 1 0 9.802021930193789 1.4147999999999745 1.4313046344617184e-19 0 0 0
67 1 1 0 11.027274671468007 2.1222000000000127 9.201244078682475e-20 0 0 0
68 1 1 0 11.027274671468032 3.5370000000000035 0 0 0 0
69 1 1 0 9.802021930193794 4.244400000000006 0 0 0 0
70 1 1 0 9.80202193019378 5.659200000000014 0 0 0 0
81 1 1 0 12.252527412742248 2.2949143821913924e-14 0 0 0 0
82 1 1 0 12.252527412742234 1.4147999999999812 0 0 0 0
83 1 1 0 13.47778015401645 2.12220000000001 3.3865690011817443e-20 0 0 0
84 1 1 0 13.477780154016484 3.5370000000000017 0 0 0 0
85 1 1 0 12.252527412742241 4.244399999999995 0 0 0 0
86 1 1 0 12.252527412742245 5.659199999999995 0 0 0 0
97 1 1 0 14.703032895290692 3.081051020588228e-14 5.750777549176547e-20 0 0 0
98 1 1 0 14.703032895290699 1.4147999999999707 1.4057456231320448e-20 0 0 0
99 1 1 0 15.928285636564892 2.1222000000000127 0 0 0 0
100 1 1 0 15.928285636564901 3.536999999999999 0 0 0 0
101 1 1 0 14.7030328952907 4.244400000000005 0 0 0 0
102 1 1 0 14.703032895290688 5.659199999999994 3.8338516994510313e-20 0 0 0
113 1 1 0 17.15353837783914 3.2617653712194017e-14 0 0 0 0
114 1 1 0 17.153538377839137 1.414799999999955 0 0 0 0
115 1 1 0 18.37879111911336 2.1222000000000003 0 0 0 0
116 1 1 0 18.378791119113384 3.5369999999999977 0 0 0 0
117 1 1 0 17.153538377839137 4.244400000000007 0 0 0 0
118 1 1 0 17.15353837783913 5.659200000000002 0 0 0 0
7 1 1 0 1.2252527412742253 6.366599999999992 1.9424848610551892e-19 0 0 0
8 1 1 0 1.2252527412742253 7.781400000000009 1.4313046344617184e-19 0 0 0
9 1 1 0 6.294468838181363e-16 8.48880000000001 2.2491929970112717e-19 0 0 0
10 1 1 0 0 9.903600000000004 0 0 0 0
11 1 1 0 1.225252741274216 10.610999999999992 0 0 0 0
23 1 1 0 3.675758223822664 6.366599999999991 0 0 0 0
24 1 1 0 3.675758223822664 7.78140000000001 0 0 0 0
25 1 1 0 2.4505054825484534 8.488800000000014 2.0447209063738834e-20 0 0 0
26 1 1 0 2.450505482548456 9.903599999999996 0 0 0 0
27 1 1 0 3.6757582238226694 10.610999999999997 0 0 0 0
39 1 1 0 6.126263706371113 6.366599999999976 6.813073957566104e-20 0 0 0
40 1 1 0 6.126263706371113 7.781400000000025 1.0223604531869417e-19 0 0 0
41 1 1 0 4.901010965096902 8.488800000000005 8.690063852089004e-20 0 0 0
42 1 1 0 4.901010965096888 9.903599999999981 0 0 0 0
43 1 1 0 6.126263706371129 10.611000000000002 0 0 0 0
55 1 1 0 8.576769188919581 6.366599999999979 0 0 0 0
56 1 1 0 8.576769188919563 7.781400000000002 0 0 0 0
57 1 1 0 7.351516447645341 8.4888 0 0 0 0
58 1 1 0 7.351516447645346 9.903599999999978 0 0 0 0
59 1 1 0 8.57676918891956 10.61100000000002 0 0 0 0
71 1 1 0 11.027274671468016 6.366599999999992 6.813073957566104e-20 0 0 0
72 1 1 0 11.027274671468005 7.781400000000009 1.0223604531869417e-19 0 0 0
73 1 1 0 9.802021930193796 8.488800000000005 1.0223604531869417e-19 0 0 0
74 1 1 0 9.802021930193783 9.903599999999981 0 0 0 0
75 1 1 0 11.027274671468026 10.611000000000002 0 0 0 0
87 1 1 0 13.477780154016463 6.366599999999992 0 0 0 0
88 1 1 0 13.477780154016463 7.781400000000009 0 0 0 0
89 1 1 0 12.252527412742255 8.488800000000007 0 0 0 0
90 1 1 0 12.25252741274223 9.903599999999985 0 0 0 0
91 1 1 0 13.477780154016473 10.610999999999994 0 0 0 0
103 1 1 0 15.92828563656491 6.3665999999999965 2.0447209063738834e-20 0 0 0
104 1 1 0 15.92828563656491 7.781400000000005 2.0447209063738834e-20 0 0 0
105 1 1 0 14.703032895290685 8.488800000000017 1.060698970181452e-19 0 0 0
106 1 1 0 14.703032895290685 9.903599999999992 0 0 0 0
107 1 1 0 15.928285636564917 10.610999999999995 0 0 0 0
119 1 1 0 18.378791119113362 6.36660000000001 3.067081359560825e-20 0 0 0
120 1 1 0 18.378791119113362 7.781399999999992 1.0223604531869417e-20 0 0 0
121 1 1 0 17.15353837783913 8.488800000000012 0 0 0 0
122 1 1 0 17.153538377839148 9.903600000000022 0 0 0 0
123 1 1 0 18.378791119113366 10.61099999999998 0 0 0 0
12 1 1 0 1.2252527412742094 12.025800000000007 1.3290685891430242e-19 0 0 0
13 1 1 0 7.338094388794593e-15 12.733199999999995 1.3290685891430242e-19 0 0 0
14 1 1 0 1.9786355266798795e-15 14.148000000000007 0 0 0 0
15 1 1 0 1.2252527412742187 14.855399999999989 1.0223604531869417e-20 0 0 0
16 1 1 0 1.2252527412742267 16.270200000000017 1.7380127704178009e-19 0 0 0
28 1 1 0 3.6757582238226814 12.025800000000004 6.773138002363489e-20 0 0 0
29 1 1 0 2.4505054825484374 12.73319999999999 0 0 0 0
30 1 1 0 2.4505054825484587 14.148000000000012 0 0 0 0
31 1 1 0 3.6757582238226667 14.855399999999992 0 0 0 0
32 1 1 0 3.675758223822664 16.27020000000001 1.2779505664836771e-21 0 0 0
44 1 1 0 6.126263706371141 12.025799999999993 5.622982492528179e-20 0 0 0
45 1 1 0 4.901010965096893 12.733199999999997 7.667703398902063e-20 0 0 0
46 1 1 0 4.901010965096905 14.148000000000012 0 0 0 0
47 1 1 0 6.12626370637113 14.855400000000005 0 0 0 0
48 1 1 0 6.1262637063711 16.270200000000038 1.22683254382433e-19 0 0 0
60 1 1 0 8.576769188919556 12.025799999999991 7.667703398902063e-20 0 0 0
61 1 1 0 7.351516447645352 12.733200000000016 0 0 0 0
62 1 1 0 7.351516447645337 14.148 0 0 0 0
63 1 1 0 8.576769188919561 14.855400000000001 0 0 0 0
64 1 1 0 8.576769188919547 16.270200000000024 2.5559011329673542e-20 0 0 0
76 1 1 0 11.027274671468017 12.025800000000013 5.622982492528179e-20 0 0 0
77 1 1 0 9.802021930193783 12.733199999999986 3.067081359560825e-20 0 0 0
78 1 1 0 9.802021930193783 14.148000000000003 0 0 0 0
79 1 1 0 11.027274671468025 14.855400000000001 0 0 0 0
80 1 1 0 11.027274671468007 16.2702 1.6868947477584538e-19 0 0 0
92 1 1 0 13.477780154016479 12.025799999999993 1.3162890834781874e-19 0 0 0
93 1 1 0 12.25252741274222 12.7332 0 0 0 0
94 1 1 0 12.252527412742248 14.148000000000007 0 0 0 0
95 1 1 0 13.477780154016473 14.855400000000005 0 0 0 0
96 1 1 0 13.477780154016454 16.270199999999996 2.3322597838327107e-20 0 0 0
108 1 1 0 15.928285636564913 12.025799999999995 2.5559011329673542e-20 0 0 0
109 1 1 0 14.703032895290688 12.733200000000002 1.5463201854452493e-19 0 0 0
110 1 1 0 14.703032895290681 14.148000000000003 0 0 0 0
111 1 1 0 15.92828563656492 14.855400000000003 0 0 0 0
112 1 1 0 15.9282856365649 16.2702 1.1245964985056359e-19 0 0 0
124 1 1 0 18.378791119113334 12.025800000000014 1.3290685891430242e-19 0 0 0
125 1 1 0 17.153538377839137 12.733199999999972 0 0 0 0
126 1 1 0 17.15353837783914 14.14800000000002 0 0 0 0
127 1 1 0 18.37879111911335 14.85539999999999 0 0 0 0
128 1 1 0 18.37879111911337 16.270200000000013 0 0 0 0

Velocities

1 0 0 0
2 0 0 0
3 0 0 0
4 0 0 0
5 0 0 0
6 0 0 0
17 0 0 0
18 0 0 0
19 0 0 0
20 0 0 0
21 0 0 0
22 0 0 0
33 0 0 0
34 0 0 0
35 0 0 0
36 0 0 0
37 0 0 0
38 0 0 0
49 0 0 0
50 0 0 0
51 0 0 0
52 0 0 0
53 0 0 0
54 0 0 0
65 0 0 0
66 0 0 0
67 0 0 0
68 0 0 0
69 0 0 0
70 0 0 0
81 0 0 0
82 0 0 0
83 0 0 0
84 0 0 0
85 0 0 0
86 0 0 0
97 0 0 0
98 0 0 0
99 0 0 0
100 0 0 0
101 0 0 0
102 0 0 0
113 0 0 0
114 0 0 0
115 0 0 0
116 0 0 0
117 0 0 0
118 0 0 0
7 0 0 0
8 0 0 0
9 0 0 0
10 0 0 0
11 0 0 0
23 0 0 0
24 0 0 0
25 0 0 0
26 0 0 0
27 0 0 0
39 0 0 0
40 0 0 0
41 0 0 0
42 0 0 0
43 0 0 0
55 0 0 0
56 0 0 0
57 0 0 0
58 0 0 0
59 0 0 0
71 0 0 0
72 0 0 0
73 0 0 0
74 0 0 0
75 0 0 0
87 0 0 0
88 0 0 0
89 0 0 0
90 0 0 0
91 0 0 0
103 0 0 0
104 0 0 0
105 0 0 0
106 0 0 0
107 0 0 0
119 0 0 0
120 0 0 0
121 0 0 0
122 0 0 0
123 0 0 0
12 0 0 0
13 0 0 0
14 0 0 0
15 0 0 0
16 0 0 0
28 0 0 0
29 0 0 0
30 0 0 0
31 0 0 0
32 0 0 0
44 0 0 0
45 0 0 0
46 0 0 0
47 0 0 0
48 0 0 0
60 0 0 0
61 0 0 0
62 0 0 0
63 0 0 0
64 0 0 0
76 0 0 0
77 0 0 0
78 0 0 0
79 0 0 0
80 0 0 0
92 0 0 0
93 0 0 0
94 0 0 0
95 0 0 0
96 0 0 0
108 0 0 0
109 0 0 0
110 0 0 0
111 0 0 0
112 0 0 0
124 0 0 0
125 0 0 0
126 0 0 0
127 0 0 0
128 0 0 0

Bonds

1 1 1 2
2 1 2 3
3 1 3 4
4 1 3 18
5 1 4 21
6 1 4 5
7 1 5 6
8 1 6 7
9 1 17 18
10 1 18 19
11 1 19 20
12 1 19 34
13 1 20 37
14 1 20 21
15 1 21 22
16 1 22 23
17 1 33 34
18 1 34 35
19 1 35 36
20 1 35 50
21 1 36 53
22 1 36 37
23 1 37 38
24 1 38 39
25 1 49 50
26 1 50 51
27 1 51 52
28 1 51 66
29 1 52 69
30 1 52 53
31 1 53 54
32 1 54 55
33 1 65 66
34 1 66 67
35 1 67 68
36 1 67 82
37 1 68 85
38 1 68 69
39 1 69 70
40 1 70 71
41 1 81 82
42 1 82 83
43 1 83 84
44 1 83 98
45 1 84 101
46 1 84 85
47 1 85 86
48 1 86 87
49 1 97 98
50 1 98 99
51 1 99 100
52 1 99 114
53 1 100 117
54 1 100 101
55 1 101 102
56 1 102 103
57 1 113 114
58 1 114 115
59 1 115 116
60 1 115 2
61 1 116 5
62 1 116 117
63 1 117 118
64 1 118 119
65 1 7 8
66 1 7 22
67 1 8 25
68 1 8 9
69 1 9 10
70 1 10 11
71 1 11 12
72 1 11 26
73 1 23 24
74 1 23 38
75 1 24 41
76 1 24 25
77 1 25 26
78 1 26 27
79 1 27 28
80 1 27 42
81 1 39 40
82 1 39 54
83 1 40 57
84 1 40 41
85 1 41 42
86 1 42 43
87 1 43 44
88 1 43 58
89 1 55 56
90 1 55 70
91 1 56 73
92 1 56 57
93 1 57 58
94 1 58 59
95 1 59 60
96 1 59 74
97 1 71 72
98 1 71 86
99 1 72 89
100 1 72 73
101 1 73 74
102 1 74 75
103 1 75 76
104 1 75 90
105 1 87 88
106 1 87 102
107 1 88 105
108 1 88 89
109 1 89 90
110 1 90 91
111 1 91 92
112 1 91 106
113 1 103 104
114 1 103 118
115 1 104 121
116 1 104 105
117 1 105 106
118 1 106 107
119 1 107 108
120 1 107 122
121 1 119 120
122 1 119 6
123 1 120 9
124 1 120 121
125 1 121 122
126 1 122 123
127 1 123 124
128 1 123 10
129 1 12 29
130 1 12 13
131 1 13 14
132 1 14 15
133 1 15 16
134 1 15 30
135 1 16 17
136 1 16 1
137 1 28 45
138 1 28 29
139 1 29 30
140 1 30 31
141 1 31 32
142 1 31 46
143 1 32 33
144 1 32 17
145 1 44 61
146 1 44 45
147 1 45 46
148 1 46 47
149 1 47 48
150 1 47 62
151 1 48 49
152 1 48 33
153 1 60 77
154 1 60 61
155 1 61 62
156 1 62 63
157 1 63 64
158 1 63 78
159 1 64 65
160 1 64 49
161 1 76 93
162 1 76 77
163 1 77 78
164 1 78 79
165 1 79 80
166 1 79 94
167 1 80 81
168 1 80 65
169 1 92 109
170 1 92 93
171 1 93 94
172 1 94 95
173 1 95 96
174 1 95 110
175 1 96 97
176 1 96 81
177 1 108 125
178 1 108 109
179 1 109 110
180 1 110 111
181 1 111 112
182 1 111 126
183 1 112 113
184 1 112 97
185 1 124 13
186 1 124 125
187 1 125 126
188 1 126 127
189 1 127 128
190 1 127 14
191 1 128 1
192 1 128 113

Angles

1 1 2 1 128
2 1 2 1 16
3 1 128 1 16
4 1 1 2 3
5 1 1 2 115
6 1 3 2 115
7 1 2 3 4
8 1 2 3 18
9 1 4 3 18
10 1 5 4 3
11 1 5 4 21
12 1 3 4 21
13 1 116 5 4
14 1 116 5 6
15 1 4 5 6
16 1 5 6 119
17 1 5 6 7
18 1 119 6 7
19 1 18 17 32
20 1 18 17 16
21 1 32 17 16
22 1 17 18 3
23 1 17 18 19
24 1 3 18 19
25 1 18 19 20
26 1 18 19 34
27 1 20 19 34
28 1 21 20 19
29 1 21 20 37
30 1 19 20 37
31 1 20 21 4
32 1 20 21 22
33 1 4 21 22
34 1 21 22 23
35 1 21 22 7
36 1 23 22 7
37 1 34 33 48
38 1 34 33 32
39 1 48 33 32
40 1 33 34 19
41 1 33 34 35
42 1 19 34 35
43 1 34 35 36
44 1 34 35 50
45 1 36 35 50
46 1 37 36 35
47 1 37 36 53
48 1 35 36 53
49 1 36 37 20
50 1 36 37 38
51 1 20 37 38
52 1 37 38 39
53 1 37 38 23
54 1 39 38 23
55 1 50 49 64
56 1 50 49 48
57 1 64 49 48
58 1 49 50 35
59 1 49 50 51
60 1 35 50 51
61 1 50 51 52
62 1 50 51 66
63 1 52 51 66
64 1 53 52 51
65 1 53 52 69
66 1 51 52 69
67 1 52 53 36
68 1 52 53 54
69 1 36 53 54
70 1 53 54 55
71 1 53 54 39
72 1 55 54 39
73 1 66 65 80
74 1 66 65 64
75 1 80 65 64
76 1 65 66 51
77 1 65 66 67
78 1 51 66 67
79 1 66 67 68
80 1 66 67 82
81 1 68 67 82
82 1 69 68 67
83 1 69 68 85
84 1 67 68 85
85 1 68 69 52
86 1 68 69 70
87 1 52 69 70
88 1 69 70 71
89 1 69 70 55
90 1 71 70 55
91 1 82 81 96
92 1 82 81 80
93 1 96 81 80
94 1 81 82 67
95 1 81 82 83
96 1 67 82 83
97 1 82 83 84
98 1 82 83 98
99 1 84 83 98
100 1 85 84 83
101 1 85 84 101
102 1 83 84 101
103 1 84 85 68
104 1 84 85 86
105 1 68 85 86
106 1 85 86 87
107 1 85 86 71
108 1 87 86 71
109 1 98 97 112
110 1 98 97 96
111 1 112 97 96
112 1 97 98 83
113 1 97 98 99
114 1 83 98 99
115 1 98 99 100
116 1 98 99 114
117 1 100 99 114
118 1 101 100 99
119 1 101 100 117
120 1 99 100 117
121 1 100 101 84
122 1 100 101 102
123 1 84 101 102
124 1 101 102 103
125 1 101 102 87
126 1 103 102 87
127 1 114 113 128
128 1 114 113 112
129 1 128 113 112
130 1 113 114 99
131 1 113 114 115
132 1 99 114 115
133 1 114 115 116
134 1 114 115 2
135 1 116 115 2
136 1 117 116 115
137 1 117 116 5
138 1 115 116 5
139 1 116 117 100
140 1 116 117 118
141 1 100 117 118
142 1 117 118 119
143 1 117 118 103
144 1 119 118 103
145 1 22 7 6
146 1 22 7 8
147 1 6 7 8
148 1 25 8 9
149 1 25 8 7
150 1 9 8 7
151 1 10 9 120
152 1 10 9 8
153 1 120 9 8
154 1 9 10 11
155 1 9 10 123
156 1 11 10 123
157 1 10 11 12
158 1 10 11 26
159 1 12 11 26
160 1 38 23 22
161 1 38 23 24
162 1 22 23 24
163 1 41 24 25
164 1 41 24 23
165 1 25 24 23
166 1 26 25 24
167 1 26 25 8
168 1 24 25 8
169 1 25 26 11
170 1 25 26 27
171 1 11 26 27
172 1 26 27 28
173 1 26 27 42
174 1 28 27 42
175 1 54 39 38
176 1 54 39 40
177 1 38 39 40
178 1 57 40 41
179 1 57 40 39
180 1 41 40 39
181 1 42 41 40
182 1 42 41 24
183 1 40 41 24
184 1 41 42 27
185 1 41 42 43
186 1 27 42 43
187 1 42 43 44
188 1 42 43 58
189 1 44 43 58
190 1 54 55 70
191 1 54 55 56
192 1 70 55 56
193 1 73 56 57
194 1 73 56 55
195 1 57 56 55
196 1 58 57 56
197 1 58 57 40
198 1 56 57 40
199 1 57 58 43
200 1 57 58 59
201 1 43 58 59
202 1 58 59 60
203 1 58 59 74
204 1 60 59 74
205 1 70 71 86
206 1 70 71 72
207 1 86 71 72
208 1 89 72 73
209 1 89 72 71
210 1 73 72 71
211 1 74 73 72
212 1 74 73 56
213 1 72 73 56
214 1 73 74 59
215 1 73 74 75
216 1 59 74 75
217 1 74 75 76
218 1 74 75 90
219 1 76 75 90
220 1 102 87 86
221 1 102 87 88
222 1 86 87 88
223 1 105 88 89
224 1 105 88 87
225 1 89 88 87
226 1 90 89 88
227 1 90 89 72
228 1 88 89 72
229 1 89 90 75
230 1 89 90 91
231 1 75 90 91
232 1 90 91 92
233 1 90 91 106
234 1 92 91 106
235 1 118 103 102
236 1 118 103 104
237 1 102 103 104
238 1 121 104 105
239 1 121 104 103
240 1 105 104 103
241 1 106 105 104
242 1 106 105 88
243 1 104 105 88
244 1 105 106 91
245 1 105 106 107
246 1 91 106 107
247 1 106 107 108
248 1 106 107 122
249 1 108 107 122
250 1 6 119 118
251 1 6 119 120
252 1 118 119 120
253 1 9 120 121
254 1 9 120 119
255 1 121 120 119
256 1 122 121 120
257 1 122 121 104
258 1 120 121 104
259 1 121 122 107
260 1 121 122 123
261 1 107 122 123
262 1 122 123 124
263 1 122 123 10
264 1 124 123 10
265 1 13 12 11
266 1 13 12 29
267 1 11 12 29
268 1 124 13 12
269 1 124 13 14
270 1 12 13 14
271 1 13 14 127
272 1 13 14 15
273 1 127 14 15
274 1 30 15 14
275 1 30 15 16
276 1 14 15 16
277 1 17 16 1
278 1 17 16 15
279 1 1 16 15
280 1 29 28 27
281 1 29 28 45
282 1 27 28 45
283 1 28 29 12
284 1 28 29 30
285 1 12 29 30
286 1 29 30 31
287 1 29 30 15
288 1 31 30 15
289 1 46 31 30
290 1 46 31 32
291 1 30 31 32
292 1 33 32 17
293 1 33 32 31
294 1 17 32 31
295 1 45 44 43
296 1 45 44 61
297 1 43 44 61
298 1 44 45 28
299 1 44 45 46
300 1 28 45 46
301 1 45 46 47
302 1 45 46 31
303 1 47 46 31
304 1 62 47 46
305 1 62 47 48
306 1 46 47 48
307 1 49 48 33
308 1 49 48 47
309 1 33 48 47
310 1 61 60 59
311 1 61 60 77
312 1 59 60 77
313 1 60 61 44
314 1 60 61 62
315 1 44 61 62
316 1 61 62 63
317 1 61 62 47
318 1 63 62 47
319 1 62 63 78
320 1 62 63 64
321 1 78 63 64
322 1 65 64 49
323 1 65 64 63
324 1 49 64 63
325 1 77 76 75
326 1 77 76 93
327 1 75 76 93
328 1 76 77 60
329 1 76 77 78
330 1 60 77 78
331 1 77 78 79
332 1 77 78 63
333 1 79 78 63
334 1 78 79 94
335 1 78 79 80
336 1 94 79 80
337 1 81 80 65
338 1 81 80 79
339 1 65 80 79
340 1 93 92 91
341 1 93 92 109
342 1 91 92 109
343 1 92 93 76
344 1 92 93 94
345 1 76 93 94
346 1 93 94 95
347 1 93 94 79
348 1 95 94 79
349 1 110 95 94
350 1 110 95 96
351 1 94 95 96
352 1 97 96 81
353 1 97 96 95
354 1 81 96 95
355 1 109 108 107
356 1 109 108 125
357 1 107 108 125
358 1 108 109 92
359 1 108 109 110
360 1 92 109 110
361 1 109 110 111
362 1 109 110 95
363 1 111 110 95
364 1 126 111 110
365 1 126 111 112
366 1 110 111 112
367 1 113 112 97
368 1 113 112 111
369 1 97 112 111
370 1 125 124 123
371 1 125 124 13
372 1 123 124 13
373 1 124 125 108
374 1 124 125 126
375 1 108 125 126
376 1 125 126 127
377 1 125 126 111
378 1 127 126 111
379 1 14 127 126
380 1 14 127 128
381 1 126 127 128
382 1 1 128 113
383 1 1 128 127
384 1 113 128 127

Dihedrals

1 1 128 1 2 3
2 1 128 1 2 115
3 1 16 1 2 3
4 1 16 1 2 115
5 1 1 2 3 4
6 1 1 2 3 18
7 1 115 2 3 4
8 1 115 2 3 18
9 1 2 3 4 5
10 1 2 3 4 21
11 1 18 3 4 5
12 1 18 3 4 21
13 1 2 3 18 17
14 1 2 3 18 19
15 1 4 3 18 17
16 1 4 3 18 19
17 1 5 4 21 20
18 1 5 4 21 22
19 1 3 4 21 20
20 1 3 4 21 22
21 1 3 4 5 116
22 1 3 4 5 6
23 1 21 4 5 116
24 1 21 4 5 6
25 1 116 5 6 119
26 1 116 5 6 7
27 1 4 5 6 119
28 1 4 5 6 7
29 1 5 6 7 22
30 1 5 6 7 8
31 1 119 6 7 22
32 1 119 6 7 8
33 1 32 17 18 3
34 1 32 17 18 19
35 1 16 17 18 3
36 1 16 17 18 19
37 1 17 18 19 20
38 1 17 18 19 34
39 1 3 18 19 20
40 1 3 18 19 34
41 1 18 19 20 21
42 1 18 19 20 37
43 1 34 19 20 21
44 1 34 19 20 37
45 1 18 19 34 33
46 1 18 19 34 35
47 1 20 19 34 33
48 1 20 19 34 35
49 1 21 20 37 36
50 1 21 20 37 38
51 1 19 20 37 36
52 1 19 20 37 38
53 1 19 20 21 4
54 1 19 20 21 22
55 1 37 20 21 4
56 1 37 20 21 22
57 1 20 21 22 23
58 1 20 21 22 7
59 1 4 21 22 23
60 1 4 21 22 7
61 1 21 22 23 38
62 1 21 22 23 24
63 1 7 22 23 38
64 1 7 22 23 24
65 1 48 33 34 19
66 1 48 33 34 35
67 1 32 33 34 19
68 1 32 33 34 35
69 1 33 34 35 36
70 1 33 34 35 50
71 1 19 34 35 36
72 1 19 34 35 50
73 1 34 35 36 37
74 1 34 35 36 53
75 1 50 35 36 37
76 1 50 35 36 53
77 1 34 35 50 49
78 1 34 35 50 51
79 1 36 35 50 49
80 1 36 35 50 51
81 1 37 36 53 52
82 1 37 36 53 54
83 1 35 36 53 52
84 1 35 36 53 54
85 1 35 36 37 20
86 1 35 36 37 38
87 1 53 36 37 20
88 1 53 36 37 38
89 1 36 37 38 39
90 1 36 37 38 23
91 1 20 37 38 39
92 1 20 37 38 23
93 1 37 38 39 54
94 1 37 38 39 40
95 1 23 38 39 54
96 1 23 38 39 40
97 1 64 49 50 35
98 1 64 49 50 51
99 1 48 49 50 35
100 1 48 49 50 51
101 1 49 50 51 52
102 1 49 50 51 66
103 1 35 50 51 52
104 1 35 50 51 66
105 1 50 51 52 53
106 1 50 51 52 69
107 1 66 51 52 53
108 1 66 51 52 69
109 1 50 51 66 65
110 1 50 51 66 67
111 1 52 51 66 65
112 1 52 51 66 67
113 1 53 52 69 68
114 1 53 52 69 70
115 1 51 52 69 68
116 1 51 52 69 70
117 1 51 52 53 36
118 1 51 52 53 54
119 1 69 52 53 36
120 1 69 52 53 54
121 1 52 53 54 55
122 1 52 53 54 39
123 1 36 53 54 55
124 1 36 53 54 39
125 1 53 54 55 70
126 1 53 54 55 56
127 1 39 54 55 70
128 1 39 54 55 56
129 1 80 65 66 51
130 1 80 65 66 67
131 1 64 65 66 51
132 1 64 65 66 67
133 1 65 66 67 68
134 1 65 66 67 82
135 1 51 66 67 68
136 1 51 66 67 82
137 1 66 67 68 69
138 1 66 67 68 85
139 1 82 67 68 69
140 1 82 67 68 85
141 1 66 67 82 81
142 1 66 67 82 83
143 1 68 67 82 81
144 1 68 67 82 83
145 1 69 68 85 84
146 1 69 68 85 86
147 1 67 68 85 84
148 1 67 68 85 86
149 1 67 68 69 52
150 1 67 68 69 70
151 1 85 68 69 52
152 1 85 68 69 70
153 1 68 69 70 71
154 1 68 69 70 55
155 1 52 69 70 71
156 1 52 69 70 55
157 1 69 70 71 86
158 1 69 70 71 72
159 1 55 70 71 86
160 1 55 70 71 72
161 1 96 81 82 67
162 1 96 81 82 83
163 1 80 81 82 67
164 1 80 81 82 83
165 1 81 82 83 84
166 1 81 82 83 98
167 1 67 82 83 84
168 1 67 82 83 98
169 1 82 83 84 85
170 1 82 83 84 101
171 1 98 83 84 85
172 1 98 83 84 101
173 1 82 83 98 97
174 1 82 83 98 99
175 1 84 83 98 97
176 1 84 83 98 99
177 1 85 84 101 100
178 1 85 84 101 102
179 1 83 84 101 100
180 1 83 84 101 102
181 1 83 84 85 68
182 1 83 84 85 86
183 1 101 84 85 68
184 1 101 84 85 86
185 1 84 85 86 87
186 1 84 85 86 71
187 1 68 85 86 87
188 1 68 85 86 71
189 1 85 86 87 102
190 1 85 86 87 88
191 1 71 86 87 102
192 1 71 86 87 88
193 1 112 97 98 83
194 1 112 97 98 99
195 1 96 97 98 83
196 1 96 97 98 99
197 1 97 98 99 100
198 1 97 98 99 114
199 1 83 98 99 100
200 1 83 98 99 114
201 1 98 99 100 101
202 1 98 99 100 117
203 1 114 99 100 101
204 1 114 99 100 117
205 1 98 99 114 113
206 1 98 99 114 115
207 1 100 99 114 113
208 1 100 99 114 115
209 1 101 100 117 116
210 1 101 100 117 118
211 1 99 100 117 116
212 1 99 100 117 118
213 1 99 100 101 84
214 1 99 100 101 102
215 1 117 100 101 84
216 1 117 100 101 102
217 1 100 101 102 103
218 1 100 101 102 87
219 1 84 101 102 103
220 1 84 101 102 87
221 1 101 102 103 118
222 1 101 102 103 104
223 1 87 102 103 118
224 1 87 102 103 104
225 1 128 113 114 99
226 1 128 113 114 115
227 1 112 113 114 99
228 1 112 113 114 115
229 1 113 114 115 116
230 1 113 114 115 2
231 1 99 114 115 116
232 1 99 114 115 2
233 1 114 115 116 117
234 1 114 115 116 5
235 1 2 115 116 117
236 1 2 115 116 5
237 1 114 115 2 1
238 1 114 115 2 3
239 1 116 115 2 1
240 1 116 115 2 3
241 1 117 116 5 4
242 1 117 116 5 6
243 1 115 116 5 4
244 1 115 116 5 6
245 1 115 116 117 100
246 1 115 116 117 118
247 1 5 116 117 100
248 1 5 116 117 118
249 1 116 117 118 119
250 1 116 117 118 103
251 1 100 117 118 119
252 1 100 117 118 103
253 1 117 118 119 6
254 1 117 118 119 120
255 1 103 118 119 6
256 1 103 118 119 120
257 1 22 7 8 25
258 1 22 7 8 9
259 1 6 7 8 25
260 1 6 7 8 9
261 1 6 7 22 21
262 1 6 7 22 23
263 1 8 7 22 21
264 1 8 7 22 23
265 1 9 8 25 26
266 1 9 8 25 24
267 1 7 8 25 26
268 1 7 8 25 24
269 1 25 8 9 10
270 1 25 8 9 120
271 1 7 8 9 10
272 1 7 8 9 120
273 1 120 9 10 11
274 1 120 9 10 123
275 1 8 9 10 11
276 1 8 9 10 123
277 1 9 10 11 12
278 1 9 10 11 26
279 1 123 10 11 12
280 1 123 10 11 26
281 1 10 11 12 13
282 1 10 11 12 29
283 1 26 11 12 13
284 1 26 11 12 29
285 1 10 11 26 25
286 1 10 11 26 27
287 1 12 11 26 25
288 1 12 11 26 27
289 1 38 23 24 41
290 1 38 23 24 25
291 1 22 23 24 41
292 1 22 23 24 25
293 1 22 23 38 37
294 1 22 23 38 39
295 1 24 23 38 37
296 1 24 23 38 39
297 1 25 24 41 42
298 1 25 24 41 40
299 1 23 24 41 42
300 1 23 24 41 40
301 1 41 24 25 26
302 1 41 24 25 8
303 1 23 24 25 26
304 1 23 24 25 8
305 1 24 25 26 11
306 1 24 25 26 27
307 1 8 25 26 11
308 1 8 25 26 27
309 1 25 26 27 28
310 1 25 26 27 42
311 1 11 26 27 28
312 1 11 26 27 42
313 1 26 27 28 29
314 1 26 27 28 45
315 1 42 27 28 29
316 1 42 27 28 45
317 1 26 27 42 41
318 1 26 27 42 43
319 1 28 27 42 41
320 1 28 27 42 43
321 1 54 39 40 57
322 1 54 39 40 41
323 1 38 39 40 57
324 1 38 39 40 41
325 1 38 39 54 53
326 1 38 39 54 55
327 1 40 39 54 53
328 1 40 39 54 55
329 1 41 40 57 58
330 1 41 40 57 56
331 1 39 40 57 58
332 1 39 40 57 56
333 1 57 40 41 42
334 1 57 40 41 24
335 1 39 40 41 42
336 1 39 40 41 24
337 1 40 41 42 27
338 1 40 41 42 43
339 1 24 41 42 27
340 1 24 41 42 43
341 1 41 42 43 44
342 1 41 42 43 58
343 1 27 42 43 44
344 1 27 42 43 58
345 1 42 43 44 45
346 1 42 43 44 61
347 1 58 43 44 45
348 1 58 43 44 61
349 1 42 43 58 57
350 1 42 43 58 59
351 1 44 43 58 57
352 1 44 43 58 59
353 1 54 55 56 73
354 1 54 55 56 57
355 1 70 55 56 73
356 1 70 55 56 57
357 1 54 55 70 69
358 1 54 55 70 71
359 1 56 55 70 69
360 1 56 55 70 71
361 1 57 56 73 74
362 1 57 56 73 72
363 1 55 56 73 74
364 1 55 56 73 72
365 1 73 56 57 58
366 1 73 56 57 40
367 1 55 56 57 58
368 1 55 56 57 40
369 1 56 57 58 43
370 1 56 57 58 59
371 1 40 57 58 43
372 1 40 57 58 59
373 1 57 58 59 60
374 1 57 58 59 74
375 1 43 58 59 60
376 1 43 58 59 74
377 1 58 59 60 61
378 1 58 59 60 77
379 1 74 59 60 61
380 1 74 59 60 77
381 1 58 59 74 73
382 1 58 59 74 75
383 1 60 59 74 73
384 1 60 59 74 75
385 1 70 71 72 89
386 1 70 71 72 73
387 1 86 71 72 89
388 1 86 71 72 73
389 1 70 71 86 85
390 1 70 71 86 87
391 1 72 71 86 85
392 1 72 71 86 87
393 1 73 72 89 90
394 1 73 72 89 88
395 1 71 72 89 90
396 1 71 72 89 88
397 1 89 72 73 74
398 1 89 72 73 56
399 1 71 72 73 74
400 1 71 72 73 56
401 1 72 73 74 59
402 1 72 73 74 75
403 1 56 73 74 59
404 1 56 73 74 75
405 1 73 74 75 76
406 1 73 74 75 90
407 1 59 74 75 76
408 1 59 74 75 90
409 1 74 75 76 77
410 1 74 75 76 93
411 1 90 75 76 77
412 1 90 75 76 93
413 1 74 75 90 89
414 1 74 75 90 91
415 1 76 75 90 89
416 1 76 75 90 91
417 1 102 87 88 105
418 1 102 87 88 89
419 1 86 87 88 105
420 1 86 87 88 89
421 1 86 87 102 101
422 1 86 87 102 103
423 1 88 87 102 101
424 1 88 87 102 103
425 1 89 88 105 106
426 1 89 88 105 104
427 1 87 88 105 106
428 1 87 88 105 104
429 1 105 88 89 90
430 1 105 88 89 72
431 1 87 88 89 90
432 1 87 88 89 72
433 1 88 89 90 75
434 1 88 89 90 91
435 1 72 89 90 75
436 1 72 89 90 91
437 1 89 90 91 92
438 1 89 90 91 106
439 1 75 90 91 92
440 1 75 90 91 106
441 1 90 91 92 93
442 1 90 91 92 109
443 1 106 91 92 93
444 1 106 91 92 109
445 1 90 91 106 105
446 1 90 91 106 107
447 1 92 91 106 105
448 1 92 91 106 107
449 1 118 103 104 121
450 1 118 103 104 105
451 1 102 103 104 121
452 1 102 103 104 105
453 1 102 103 118 117
454 1 102 103 118 119
455 1 104 103 118 117
456 1 104 103 118 119
457 1 105 104 121 122
458 1 105 104 121 120
459 1 103 104 121 122
460 1 103 104 121 120
461 1 121 104 105 106
462 1 121 104 105 88
463 1 103 104 105 106
464 1 103 104 105 88
465 1 104 105 106 91
466 1 104 105 106 107
467 1 88 105 106 91
468 1 88 105 106 107
469 1 105 106 107 108
470 1 105 106 107 122
471 1 91 106 107 108
472 1 91 106 107 122
473 1 106 107 108 109
474 1 106 107 108 125
475 1 122 107 108 109
476 1 122 107 108 125
477 1 106 107 122 121
478 1 106 107 122 123
479 1 108 107 122 121
480 1 108 107 122 123
481 1 6 119 120 9
482 1 6 119 120 121
483 1 118 119 120 9
484 1 118 119 120 121
485 1 118 119 6 5
486 1 118 119 6 7
487 1 120 119 6 5
488 1 120 119 6 7
489 1 121 120 9 10
490 1 121 120 9 8
491 1 119 120 9 10
492 1 119 120 9 8
493 1 9 120 121 122
494 1 9 120 121 104
495 1 119 120 121 122
496 1 119 120 121 104
497 1 120 121 122 107
498 1 120 121 122 123
499 1 104 121 122 107
500 1 104 121 122 123
501 1 121 122 123 124
502 1 121 122 123 10
503 1 107 122 123 124
504 1 107 122 123 10
505 1 122 123 124 125
506 1 122 123 124 13
507 1 10 123 124 125
508 1 10 123 124 13
509 1 122 123 10 9
510 1 122 123 10 11
511 1 124 123 10 9
512 1 124 123 10 11
513 1 13 12 29 28
514 1 13 12 29 30
515 1 11 12 29 28
516 1 11 12 29 30
517 1 11 12 13 124
518 1 11 12 13 14
519 1 29 12 13 124
520 1 29 12 13 14
521 1 124 13 14 127
522 1 124 13 14 15
523 1 12 13 14 127
524 1 12 13 14 15
525 1 13 14 15 30
526 1 13 14 15 16
527 1 127 14 15 30
528 1 127 14 15 16
529 1 30 15 16 17
530 1 30 15 16 1
531 1 14 15 16 17
532 1 14 15 16 1
533 1 14 15 30 29
534 1 14 15 30 31
535 1 16 15 30 29
536 1 16 15 30 31
537 1 1 16 17 18
538 1 1 16 17 32
539 1 15 16 17 18
540 1 15 16 17 32
541 1 17 16 1 2
542 1 17 16 1 128
543 1 15 16 1 2
544 1 15 16 1 128
545 1 29 28 45 44
546 1 29 28 45 46
547 1 27 28 45 44
548 1 27 28 45 46
549 1 27 28 29 12
550 1 27 28 29 30
551 1 45 28 29 12
552 1 45 28 29 30
553 1 28 29 30 31
554 1 28 29 30 15
555 1 12 29 30 31
556 1 12 29 30 15
557 1 29 30 31 46
558 1 29 30 31 32
559 1 15 30 31 46
560 1 15 30 31 32
561 1 46 31 32 33
562 1 46 31 32 17
563 1 30 31 32 33
564 1 30 31 32 17
565 1 30 31 46 45
566 1 30 31 46 47
567 1 32 31 46 45
568 1 32 31 46 47
569 1 17 32 33 34
570 1 17 32 33 48
571 1 31 32 33 34
572 1 31 32 33 48
573 1 33 32 17 18
574 1 33 32 17 16
575 1 31 32 17 18
576 1 31 32 17 16
577 1 45 44 61 60
578 1 45 44 61 62
579 1 43 44 61 60
580 1 43 44 61 62
581 1 43 44 45 28
582 1 43 44 45 46
583 1 61 44 45 28
584 1 61 44 45 46
585 1 44 45 46 47
586 1 44 45 46 31
587 1 28 45 46 47
588 1 28 45 46 31
589 1 45 46 47 62
590 1 45 46 47 48
591 1 31 46 47 62
592 1 31 46 47 48
593 1 62 47 48 49
594 1 62 47 48 33
595 1 46 47 48 49
596 1 46 47 48 33
597 1 46 47 62 61
598 1 46 47 62 63
599 1 48 47 62 61
600 1 48 47 62 63
601 1 33 48 49 50
602 1 33 48 49 64
603 1 47 48 49 50
604 1 47 48 49 64
605 1 49 48 33 34
606 1 49 48 33 32
607 1 47 48 33 34
608 1 47 48 33 32
609 1 61 60 77 76
610 1 61 60 77 78
611 1 59 60 77 76
612 1 59 60 77 78
613 1 59 60 61 44
614 1 59 60 61 62
615 1 77 60 61 44
616 1 77 60 61 62
617 1 60 61 62 63
618 1 60 61 62 47
619 1 44 61 62 63
620 1 44 61 62 47
621 1 61 62 63 78
622 1 61 62 63 64
623 1 47 62 63 78
624 1 47 62 63 64
625 1 62 63 64 65
626 1 62 63 64 49
627 1 78 63 64 65
628 1 78 63 64 49
629 1 62 63 78 77
630 1 62 63 78 79
631 1 64 63 78 77
632 1 64 63 78 79
633 1 49 64 65 66
634 1 49 64 65 80
635 1 63 64 65 66
636 1 63 64 65 80
637 1 65 64 49 50
638 1 65 64 49 48
639 1 63 64 49 50
640 1 63 64 49 48
641 1 77 76 93 92
642 1 77 76 93 94
643 1 75 76 93 92
644 1 75 76 93 94
645 1 75 76 77 60
646 1 75 76 77 78
647 1 93 76 77 60
648 1 93 76 77 78
649 1 76 77 78 79
650 1 76 77 78 63
651 1 60 77 78 79
652 1 60 77 78 63
653 1 77 78 79 94
654 1 77 78 79 80
655 1 63 78 79 94
656 1 63 78 79 80
657 1 78 79 80 81
658 1 78 79 80 65
659 1 94 79 80 81
660 1 94 79 80 65
661 1 78 79 94 93
662 1 78 79 94 95
663 1 80 79 94 93
664 1 80 79 94 95
665 1 65 80 81 82
666 1 65 80 81 96
667 1 79 80 81 82
668 1 79 80 81 96
669 1 81 80 65 66
670 1 81 80 65 64