LAMMPS (11 Feb 2026)
OMP_NUM_THREADS environment is not set. Defaulting to 1 thread.
  using 1 OpenMP thread(s) per MPI task
Loaded 1 plugins from C:\Users\diana\AppData\Local\LAMMPS 64-bit 11Feb2026\plugins
#uniaxial tensile test of mmt-gr

##---------------INITIALIZATION-------------------------------

units          real
dimension 	    3
boundary       p p p
atom_style 	full
newton 		on


##---------------FORCE FIELDS 1---------------------------------

bond_style      harmonic

angle_style     harmonic

dihedral_style  charmm

improper_style  cvff


##---------------ATOM DEFINITION------------------------------

read_data	finallmp_new_300h2o_complete_3mmt3gr_20wtgr.data
Reading data file ...
  orthogonal box = (0 0 0) to (40.108 34.805 60.699135)
  1 by 1 by 1 MPI processor grid
  reading atoms ...
  8148 atoms
  scanning bonds ...
  3 = max bonds/atom
  scanning angles ...
  3 = max angles/atom
  scanning dihedrals ...
  12 = max dihedrals/atom
  scanning impropers ...
  3 = max impropers/atom
  orthogonal box = (0 0 0) to (40.108 34.805 60.699135)
  1 by 1 by 1 MPI processor grid
  reading bonds ...
  4488 bonds
  reading angles ...
  6276 angles
  reading dihedrals ...
  9216 dihedrals
  reading impropers ...
  1536 impropers
Finding 1-2 1-3 1-4 neighbors ...
  special bond factors lj:    0        0        0       
  special bond factors coul:  0        0        0       
     3 = max # of 1-2 neighbors
     6 = max # of 1-3 neighbors
    18 = max # of 1-4 neighbors
    18 = max # of special neighbors
  special bonds CPU = 0.002 seconds
  read_data CPU = 0.101 seconds


##---------------FORCE FIELDS 2---------------------------------


# Definir el estilo de pares hybrid
pair_style hybrid lj/cut/coul/long 10.0 lj/cut 10.0

# Coeficientes de interacciones para el carbono del grafeno
pair_coeff 1 1 lj/cut 0.1480000000 3.6170000000 10.0  # C (grafeno)

# Coeficientes de interacciones para la arcilla
pair_coeff 2 2 lj/cut/coul/long 0.0000013298 4.2712400000 10.0  # ao (arcilla)
pair_coeff 3 3 lj/cut/coul/long 0.0000009030 5.2643200000 10.0  # mgo (arcilla)
pair_coeff 4 4 lj/cut/coul/long 0.0000018405 3.3020300000 10.0  # st (arcilla)
pair_coeff 5 5 lj/cut/coul/long 0.0000018405 3.3020300000 10.0  # at (arcilla)
pair_coeff 6 6 lj/cut/coul/long 0.1554000000 3.1655400000 10.0  # ob (arcilla)
pair_coeff 7 7 lj/cut/coul/long 0.1554000000 3.1655400000 10.0  # ohy (arcilla)
pair_coeff 9 9 lj/cut/coul/long 0.1554000000 3.1655400000 10.0  # obos (arcilla)
pair_coeff 10 10 lj/cut/coul/long 0.1554000000 3.1655400000 10.0  # ohs (arcilla)
pair_coeff 8 8 lj/cut/coul/long 0.1554000000 3.1655400000 10.0  # obts (arcilla)
pair_coeff 11 11 lj/cut/coul/long 0.0000000000 0.0000000000 10.0  # hoy (arcilla)
pair_coeff 12 12 lj/cut/coul/long 0.1553000000 2.2344000000 10.0  # na (arcilla)
pair_coeff 13 13 lj/cut/coul/long 0.1553000000 3.1660000000 10.0  # ow (arcilla_agua)
pair_coeff 14 14 lj/cut/coul/long 0.0000000000 0.0000000000 10.0  # hw (arcilla_agua)

# Coeficientes de interacciones cruzadas entre carbono del grafeno y arcilla
pair_coeff 1 2 lj/cut 0.000443633 3.94412 10.0  # C - ao (interacción cruzada)
pair_coeff 1 3 lj/cut 0.000365574 4.44066 10.0  # C - mgo (interacción cruzada)
pair_coeff 1 4 lj/cut 0.000521914 3.459515 10.0  # C - st (interacción cruzada)
pair_coeff 1 5 lj/cut 0.000521914 3.459515 10.0  # C - at (interacción cruzada)
pair_coeff 1 6 lj/cut 0.151654871 3.39127 10.0  # C - ob (interacción cruzada)
pair_coeff 1 7 lj/cut 0.151654871 3.39127 10.0  # C - ohy (interacción cruzada)
pair_coeff 1 9 lj/cut 0.151654871 3.39127 10.0  # C - obos (interacción cruzada)
pair_coeff 1 10 lj/cut 0.151654871 3.39127 10.0  # C - ohs (interacción cruzada)
pair_coeff 1 8 lj/cut 0.151654871 3.39127 10.0 # C - obts (interacción cruzada)
pair_coeff 1 11 lj/cut 0.000000000 1.8085 10.0 # C - hoy (interacción cruzada)
pair_coeff 1 12 lj/cut 0.151606068 2.9257 10.0 # C - na (interacción cruzada)
pair_coeff 1 13 lj/cut 0.151606068 3.3915 10.0 # C - ow (interacción cruzada)
pair_coeff 1 14 lj/cut 0.000000000 1.8085 10.0 # C - hw (interacción cruzada)

# Definir kspace_style para manejar las interacciones electrostáticas de largo alcance
kspace_style pppm 1.0e-4

# Relajación con minimize
thermo_style custom step temp epair ebond eangle edihed eimp pe ke etotal press
thermo 100
minimize 0.0 1.0e-8 10000 100000
PPPM initialization ...
WARNING: System is not charge neutral, net charge = 0.0048
For more information see https://docs.lammps.org/err0029 (src/kspace.cpp:329)
  using 12-bit tables for long-range coulomb
  G vector (1/distance) = 0.28259897
  grid = 27 24 36
  stencil order = 5
  estimated absolute RMS force accuracy = 0.030542009
  estimated relative force accuracy = 9.1976354e-05
  using double precision FFTW3
  3d grid and FFT values/proc = 45322 23328
Generated 78 of 91 mixed pair_coeff terms from geometric mixing rule
Neighbor list info ...
  update: every = 1 steps, delay = 0 steps, check = yes
  max neighbors/atom: 2000, page size: 100000
  master list distance cutoff = 12
  ghost atom cutoff = 12
  binsize = 6, bins = 7 6 11
  3 neighbor lists, perpetual/occasional/extra = 3 0 0
  (1) pair lj/cut/coul/long, perpetual, skip from (3)
      attributes: half, newton on
      pair build: skip
      stencil: none
      bin: none
  (2) pair lj/cut, perpetual, skip from (3)
      attributes: half, newton on
      pair build: skip
      stencil: none
      bin: none
  (3) neighbor class addition, perpetual
      attributes: half, newton on
      pair build: half/bin/newton
      stencil: half/bin/3d
      bin: standard
WARNING: Inconsistent image flags
For more information see https://docs.lammps.org/err0027 (src/domain.cpp:1052)
Per MPI rank memory allocation (min/avg/max) = 55.98 | 55.98 | 55.98 Mbytes
   Step          Temp          E_pair         E_bond        E_angle        E_dihed        E_impro         PotEng         KinEng         TotEng         Press     
         0   0             -810329.14      15646.248      74.180777      8.9528385e-13  4.2984283e-13 -794608.72      0             -794608.72      300743.08    
       100   0             -955401.98      13682.846      711.83588      1.9158133      0.013634754   -941005.37      0             -941005.37     -68033        
       200   0             -956857.48      13750.925      724.25248      1.2707046      0.0090052174  -942381.03      0             -942381.03     -69195.558    
       300   0             -957300.01      13767.892      725.19107      0.96559351     0.0069120294  -942805.95      0             -942805.95     -69511.135    
       400   0             -957511.49      13768.697      724.9921       0.88205888     0.0063515346  -943016.91      0             -943016.91     -69701.495    
       500   0             -957673.71      13775.627      725.34195      0.87400041     0.0062719942  -943171.86      0             -943171.86     -69801.262    
       600   0             -957779.68      13784.454      729.99677      0.87119727     0.0063154439  -943264.35      0             -943264.35     -69761.664    
       700   0             -957816.68      13785.874      728.59782      0.84728303     0.0061689244  -943301.35      0             -943301.35     -69793.862    
       800   0             -957839.16      13784.57       730.97565      0.86021378     0.006226888   -943322.74      0             -943322.74     -69855.367    
       900   0             -957855.76      13784.372      731.70089      0.89827343     0.0065155488  -943338.79      0             -943338.79     -69859.566    
      1000   0             -957870.7       13786.579      733.59174      0.87552266     0.0063605595  -943349.65      0             -943349.65     -69801.258    
      1100   0             -957887.81      13785.929      733.5799       0.83635285     0.0060827403  -943367.46      0             -943367.46     -69879.59     
      1200   0             -957907.63      13787.026      735.0269       0.82570863     0.0060095637  -943384.74      0             -943384.74     -69864.767    
      1300   0             -957919.37      13786.726      735.91408      0.83273516     0.0060656452  -943395.89      0             -943395.89     -69891.825    
      1400   0             -957926.83      13787.353      735.66552      0.84045656     0.00610471    -943402.97      0             -943402.97     -69906.777    
      1433   0             -957928.41      13787.514      735.72341      0.83172125     0.0060477692  -943404.34      0             -943404.34     -69903.246    
Loop time of 136.066 on 1 procs for 1433 steps with 8148 atoms

99.8% CPU use with 1 MPI tasks x 1 OpenMP threads

Minimization stats:
  Stopping criterion = linesearch alpha is zero
  Energy initial, next-to-last, final = 
     -794608.715364194   -943404.33774434   -943404.33774434
  Force two-norm initial, final = 96764.719 6.9142234
  Force max component initial, final = 22509.493 0.31206626
  Final line search alpha, max atom move = 2.3120857e-10 7.2152395e-11
  Iterations, force evaluations = 1433 2920

MPI task timing breakdown:
Section |  min time  |  avg time  |  max time  |%varavg| %total
---------------------------------------------------------------
Pair    | 122.6      | 122.6      | 122.6      |   0.0 | 90.10
Bond    | 2.1283     | 2.1283     | 2.1283     |   0.0 |  1.56
Kspace  | 8.4536     | 8.4536     | 8.4536     |   0.0 |  6.21
Neigh   | 2.4037     | 2.4037     | 2.4037     |   0.0 |  1.77
Comm    | 0.20566    | 0.20566    | 0.20566    |   0.0 |  0.15
Output  | 0.00744    | 0.00744    | 0.00744    |   0.0 |  0.01
Modify  | 0          | 0          | 0          |   0.0 |  0.00
Other   |            | 0.2679     |            |       |  0.20

Nlocal:           8148 ave        8148 max        8148 min
Histogram: 1 0 0 0 0 0 0 0 0 0
Nghost:          22426 ave       22426 max       22426 min
Histogram: 1 0 0 0 0 0 0 0 0 0
Neighs:              0 ave           0 max           0 min
Histogram: 1 0 0 0 0 0 0 0 0 0

Total # of neighbors = 0
Ave neighs/atom = 0
Ave special neighs/atom = 4.1502209
Neighbor list builds = 45
Dangerous builds = 0

##---------------SETTINGS-------------------------------------

timestep 	0.5
variable   ts equal 0.5


##---------------COMPUTES-------------------------------------

compute 	1 all stress/atom NULL
compute    2 all reduce sum c_1[1] c_1[2]


variable   Lx equal lx
variable   Ly equal ly
variable   Lz equal lz
variable   Vol equal vol
#variable   thickn equal 3.4
fix		1 all npt temp 300 300 50 x 1 1 500 y 1 1 500
thermo 	2000
##---------------RELAXATION--------------------------------------

run            50000
PPPM initialization ...
  using 12-bit tables for long-range coulomb
  G vector (1/distance) = 0.28259897
  grid = 27 24 36
  stencil order = 5
  estimated absolute RMS force accuracy = 0.030542009
  estimated relative force accuracy = 9.1976354e-05
  using double precision FFTW3
  3d grid and FFT values/proc = 45322 23328
Generated 78 of 91 mixed pair_coeff terms from geometric mixing rule
WARNING: Inconsistent image flags
For more information see https://docs.lammps.org/err0027 (src/domain.cpp:1052)
Per MPI rank memory allocation (min/avg/max) = 66.98 | 66.98 | 66.98 Mbytes
   Step          Temp          E_pair         E_bond        E_angle        E_dihed        E_impro         PotEng         KinEng         TotEng         Press     
      1433   0             -957928.41      13787.514      735.72341      0.83172125     0.0060477692  -943404.34      0             -943404.34     -69903.246    
      2000   35.69876      -952665.55      4479.9377      838.67938      4.3044569      0.029113904   -947342.6       866.93222     -946475.67     -7839.3796    
      4000   308.71184     -946109.89      4559.2035      1164.1165      52.281464      0.35296657    -940333.94      7496.962      -932836.97      1207.9045    
      6000   302.45241     -946413.49      4483.2866      1233.0047      54.975598      0.38409366    -940641.84      7344.9537     -933296.89      302.00828    
      8000   296.92698     -946405.64      4487.9992      1222.9974      70.937951      0.49889787    -940623.21      7210.7706     -933412.44      193.1785     
     10000   298.59852     -946412.9       4398.4043      1240.2794      73.869018      0.52525806    -940699.82      7251.3634     -933448.46      753.17053    
     12000   304.18265     -946603.75      4552.2121      1218.884       80.100314      0.57075277    -940751.99      7386.9721     -933365.01     -306.61373    
     14000   299.86756     -946740.57      4453.1294      1275.2399      81.065212      0.58163609    -940930.55      7282.1816     -933648.37     -1491.8566    
     16000   300.95574     -946689.16      4435.995       1302.4637      82.799975      0.59735374    -940867.31      7308.6077     -933558.7       651.54738    
     18000   300.46255     -946803.72      4495.5882      1210.8253      81.355364      0.59563277    -941015.35      7296.6306     -933718.72     -1224.6735    
     20000   300.26387     -946833.84      4493.1281      1282.5133      87.563164      0.64247062    -940969.99      7291.8059     -933678.18     -178.41917    
     22000   298.07013     -946864.17      4487.3914      1336.816       92.938292      0.68456792    -940946.34      7238.5315     -933707.8       433.2321     
     24000   297.52538     -946849.89      4545.4072      1206.5074      88.048446      0.65411083    -941009.27      7225.3025     -933783.97      679.1196     
     26000   300.79046     -946861.06      4439.2398      1296.7203      91.763025      0.67726506    -941032.66      7304.594      -933728.06     -276.92666    
     28000   299.24604     -946795.96      4471.2894      1273.555       100.80062      0.7475512     -940949.56      7267.0881     -933682.47      1765.0668    
     30000   299.71529     -946783.02      4482.9871      1275.4187      104.15043      0.76916174    -940919.69      7278.4837     -933641.21      2395.3479    
     32000   298.81629     -946846.49      4598.4451      1222.6111      102.93503      0.77062378    -940921.73      7256.6519     -933665.08      1338.3584    
     34000   302.01012     -946873.51      4450.9929      1255.6585      101.13305      0.76147834    -941064.96      7334.2128     -933730.75     -42.377105    
     36000   300.99025     -946880.07      4503.34        1206.0784      120.85575      0.90674026    -941048.89      7309.4457     -933739.45      517.53914    
     38000   300.67917     -947018.19      4639.4382      1255.8801      119.90962      0.90571825    -941002.06      7301.8912     -933700.17      607.52281    
     40000   298.16255     -947112.85      4668.3283      1263.9274      111.87971      0.85100076    -941067.86      7240.776      -933827.09     -1375.6059    
     42000   302.08036     -946830.73      4567.4494      1190.505       115.6218       0.88084611    -940956.27      7335.9188     -933620.35     -786.88819    
     44000   296.64176     -947084.94      4688.5334      1285.6346      112.74786      0.87407518    -940997.15      7203.8441     -933793.31     -1919.0578    
     46000   300.10045     -946931.61      4633.3744      1314.5641      122.84402      0.94913612    -940859.88      7287.8372     -933572.04      515.87178    
     48000   301.28297     -947045.86      4622.9063      1273.8054      119.31177      0.91646064    -941028.92      7316.5544     -933712.36      82.5465      
     50000   303.99079     -946899.78      4644.4966      1235.7849      116.87253      0.90591606    -940901.72      7382.3127     -933519.41     -861.32847    
     51433   301.14878     -946856.06      4626.0129      1217.3505      124.52241      0.96580339    -940887.2       7313.2955     -933573.91      1169.807     
Loop time of 2438.22 on 1 procs for 50000 steps with 8148 atoms

Performance: 0.886 ns/day, 27.091 hours/ns, 20.507 timesteps/s, 167.089 katom-step/s
90.2% CPU use with 1 MPI tasks x 1 OpenMP threads

MPI task timing breakdown:
Section |  min time  |  avg time  |  max time  |%varavg| %total
---------------------------------------------------------------
Pair    | 1837.4     | 1837.4     | 1837.4     |   0.0 | 75.36
Bond    | 43.941     | 43.941     | 43.941     |   0.0 |  1.80
Kspace  | 162.98     | 162.98     | 162.98     |   0.0 |  6.68
Neigh   | 89.732     | 89.732     | 89.732     |   0.0 |  3.68
Comm    | 4.152      | 4.152      | 4.152      |   0.0 |  0.17
Output  | 0.012672   | 0.012672   | 0.012672   |   0.0 |  0.00
Modify  | 298.32     | 298.32     | 298.32     |   0.0 | 12.24
Other   |            | 1.649      |            |       |  0.07

Nlocal:           8148 ave        8148 max        8148 min
Histogram: 1 0 0 0 0 0 0 0 0 0
Nghost:          23516 ave       23516 max       23516 min
Histogram: 1 0 0 0 0 0 0 0 0 0
Neighs:              0 ave           0 max           0 min
Histogram: 1 0 0 0 0 0 0 0 0 0

Total # of neighbors = 0
Ave neighs/atom = 0
Ave special neighs/atom = 4.1502209
Neighbor list builds = 1470
Dangerous builds = 0


##---------------DEFORMATION--------------------------------------
unfix              1
reset_timestep     0
fix		1 all npt temp 300 300 50 y 1 1 500 z 1 1 500
fix        2 all ave/time 1 100 100 c_2[1] c_2[2]
fix        3 all ave/time 1 100 100 v_Lx v_Ly v_Lz v_Vol
variable   srate equal 1.0e9
variable   srate1 equal "v_srate / 1.0e15"
fix		4 all deform 1 x erate ${srate1} units box remap x
fix		4 all deform 1 x erate 1e-06 units box remap x
run            100
PPPM initialization ...
  using 12-bit tables for long-range coulomb
  G vector (1/distance) = 0.282136
  grid = 25 24 36
  stencil order = 5
  estimated absolute RMS force accuracy = 0.032488624
  estimated relative force accuracy = 9.7838525e-05
  using double precision FFTW3
  3d grid and FFT values/proc = 42656 21600
Generated 78 of 91 mixed pair_coeff terms from geometric mixing rule
WARNING: Inconsistent image flags
For more information see https://docs.lammps.org/err0027 (src/domain.cpp:1052)
Per MPI rank memory allocation (min/avg/max) = 68.13 | 68.13 | 68.13 Mbytes
   Step          Temp          E_pair         E_bond        E_angle        E_dihed        E_impro         PotEng         KinEng         TotEng         Press     
         0   301.14878     -946856.29      4626.0129      1217.3505      124.52241      0.96580339    -940887.44      7313.2955     -933574.15      1169.4254    
       100   298.82597     -946957.67      4672.8377      1305.0176      126.70649      0.98402568    -940852.13      7256.887      -933595.24     -1479.3257    
Loop time of 8.72759 on 1 procs for 100 steps with 8148 atoms

Performance: 0.495 ns/day, 48.487 hours/ns, 11.458 timesteps/s, 93.359 katom-step/s
99.4% CPU use with 1 MPI tasks x 1 OpenMP threads

MPI task timing breakdown:
Section |  min time  |  avg time  |  max time  |%varavg| %total
---------------------------------------------------------------
Pair    | 6.219      | 6.219      | 6.219      |   0.0 | 71.26
Bond    | 0.16448    | 0.16448    | 0.16448    |   0.0 |  1.88
Kspace  | 0.80059    | 0.80059    | 0.80059    |   0.0 |  9.17
Neigh   | 0.13864    | 0.13864    | 0.13864    |   0.0 |  1.59
Comm    | 0.01211    | 0.01211    | 0.01211    |   0.0 |  0.14
Output  | 0.000226   | 0.000226   | 0.000226   |   0.0 |  0.00
Modify  | 1.3872     | 1.3872     | 1.3872     |   0.0 | 15.89
Other   |            | 0.005369   |            |       |  0.06

Nlocal:           8148 ave        8148 max        8148 min
Histogram: 1 0 0 0 0 0 0 0 0 0
Nghost:          23524 ave       23524 max       23524 min
Histogram: 1 0 0 0 0 0 0 0 0 0
Neighs:              0 ave           0 max           0 min
Histogram: 1 0 0 0 0 0 0 0 0 0

Total # of neighbors = 0
Ave neighs/atom = 0
Ave special neighs/atom = 4.1502209
Neighbor list builds = 2
Dangerous builds = 0
##---------------THERMO-OUTPUTS--------------------------------------
variable   CorVol equal f_3[4]
variable   ConvoFac equal 1/1.01325e4
variable   sigmaxx equal f_2[1]*v_ConvoFac/v_CorVol
variable   sigmayy equal f_2[2]*v_ConvoFac/v_CorVol
variable   StrainPerTs equal v_srate1*v_ts
variable   strain equal v_StrainPerTs*step
thermo 	100
thermo_style custom step temp v_strain v_sigmaxx v_sigmayy pe ke lx ly vol


##---------------DEFORMATION--------------------------------------
dump 1 all custom 5000 tensile_test.lammpstrj id type element x y z
dump_modify 1 element C Al Mg Si Al O O O O O H Na O H
run            500000
PPPM initialization ...
  using 12-bit tables for long-range coulomb
  G vector (1/distance) = 0.2821472
  grid = 25 24 36
  stencil order = 5
  estimated absolute RMS force accuracy = 0.032472653
  estimated relative force accuracy = 9.779043e-05
  using double precision FFTW3
  3d grid and FFT values/proc = 42656 21600
Generated 78 of 91 mixed pair_coeff terms from geometric mixing rule
WARNING: Inconsistent image flags
For more information see https://docs.lammps.org/err0027 (src/domain.cpp:1052)
Per MPI rank memory allocation (min/avg/max) = 69.63 | 69.63 | 69.63 Mbytes
   Step          Temp         v_strain      v_sigmaxx      v_sigmayy        PotEng         KinEng           Lx             Ly           Volume    
       100   298.82597      5e-05          0.22585335     0.058375206   -940852.11      7256.887       38.723715      33.580005      78881.563    
       200   299.65218      0.0001         0.033945149   -0.14418789    -941019.68      7276.951       38.725652      33.591204      78653.926    
       300   297.29373      0.00015        0.13716685     0.08437163    -941054.93      7219.677       38.727588      33.588693      78489.664    
       400   296.00975      0.0002         0.18309003     0.015230775   -940972.8       7188.496       38.729524      33.576861      78461.82     
       500   302.0855       0.00025        0.146546      -0.061785019   -941026.89      7336.0436      38.73146       33.603276      78543.19     
       600   304.13724      0.0003         0.12478956     0.047240424   -941041.44      7385.8694      38.733396      33.578345      78472.394    
       700   301.16735      0.00035        0.18969661     0.011234544   -940967.56      7313.7466      38.735332      33.599721      78414.941    
       800   299.14518      0.0004         0.16909165    -0.067912405   -940982.8       7264.6389      38.737269      33.598425      78170.495    
       900   298.92966      0.00045        0.24867928     0.08967324    -941146.75      7259.405       38.739205      33.580344      78056.763    
      1000   298.49962      0.0005         0.16665945    -0.02999589    -941151.23      7248.9615      38.741141      33.596815      78108.254    
      1100   300.60028      0.00055        0.17414847    -0.0057197784  -941112.58      7299.9753      38.743077      33.578985      78122.795    
      1200   302.47054      0.0006         0.20999484     0.033796491   -941061.73      7345.3941      38.745013      33.60874       78253.855    
      1300   303.19626      0.00065        0.26779557     0.024390516   -941053.85      7363.0179      38.74695       33.561354      78225.788    
      1400   298.2222       0.0007         0.28468964    -0.12877517    -940963.46      7242.2246      38.748886      33.610668      78254.101    
      1500   295.07435      0.00075        0.22866556     0.13867887    -940939.97      7165.7801      38.750822      33.609515      78271.821    
      1600   298.31356      0.0008         0.32722991    -0.059734775   -941008.24      7244.4433      38.752758      33.546187      78115.55     
      1700   302.48788      0.00085        0.27049577    -0.065181321   -940965.52      7345.8151      38.754694      33.624578      78370.181    
      1800   300.22121      0.0009         0.29647366     0.11387345    -940835.86      7290.7698      38.75663       33.59559       78459.901    
      1900   300.45749      0.00095        0.30150271    -0.061909259   -940905.43      7296.5078      38.758567      33.552488      78496.919    
      2000   298.33098      0.001          0.39250297    -0.04968813    -941029.76      7244.8663      38.760503      33.606542      78530.456    
      2100   301.5219       0.00105        0.38379383     0.10539939    -941144.35      7322.3566      38.762439      33.584429      78287.738    
      2200   296.91335      0.0011         0.44121603    -0.077170794   -940985.73      7210.4396      38.764375      33.574119      78204.807    
      2300   303.31893      0.00115        0.47284105     0.031839088   -941066.16      7365.9969      38.766311      33.592907      78142.744    
      2400   301.51723      0.0012         0.41242341    -0.0025109431  -940961.47      7322.2433      38.768248      33.599729      78161.498    
      2500   302.58166      0.00125        0.42325365     0.041849467   -940992.34      7348.0926      38.770184      33.580037      78152.766    
      2600   298.4265       0.0013         0.44750009    -0.046720267   -941063.55      7247.1859      38.77212       33.588643      78240.289    
      2700   294.61246      0.00135        0.51313301     0.064936538   -941003.12      7154.5633      38.774056      33.583973      78101.632    
      2800   301.23276      0.0014         0.47231862    -0.068409813   -941064.46      7315.3351      38.775992      33.592666      78114.891    
      2900   304.64824      0.00145        0.55603438     0.022197947   -941058.79      7398.2789      38.777929      33.565682      77874.808    
      3000   302.679        0.0015         0.50121892    -0.073556256   -941065.37      7350.4564      38.779865      33.601921      77920.188    
      3100   303.91281      0.00155        0.45810362     0.20506648    -941165.68      7380.4191      38.781801      33.603932      77948.595    
      3200   296.52174      0.0016         0.54023479    -0.21487327    -941059.77      7200.9295      38.783737      33.543197      77984.051    
      3300   300.50886      0.00165        0.55278433     0.029964449   -941095.77      7297.7554      38.785673      33.606629      78236.99     
      3400   301.99633      0.0017         0.60229428     0.13086144    -941040.68      7333.878       38.787609      33.5827        78254.544    
      3500   302.00328      0.00175        0.55740532    -0.15850812    -941058.74      7334.0467      38.789546      33.565083      78159.487    
      3600   303.63694      0.0018         0.64351239     0.023064621   -941140.04      7373.7196      38.791482      33.602526      78172.841    
      3700   300.47665      0.00185        0.56852826     0.15365794    -941102.65      7296.9731      38.793418      33.592422      78079.399    
      3800   304.12839      0.0019         0.566336      -0.2152508     -941205.71      7385.6543      38.795354      33.589188      78157.806    
      3900   298.27657      0.00195        0.72144419     0.21045045    -941131.24      7243.545       38.79729       33.57617       78127.04     
      4000   296.08065      0.002          0.66301377    -0.1574694     -941090.52      7190.2179      38.799227      33.556393      77915.539    
      4100   298.20658      0.00205        0.67325769    -0.001062969   -940988.75      7241.8452      38.801163      33.614395      78030.454    
      4200   300.71653      0.0021         0.68767317     0.08966796    -940988.24      7302.7986      38.803099      33.588388      77874.473    
      4300   300.95929      0.00215        0.73152655    -0.055765155   -941056.77      7308.6938      38.805035      33.576377      77901.811    
      4400   300.72783      0.0022         0.72526657    -0.0046399583  -941135.48      7303.0729      38.806971      33.590933      77936.518    
      4500   299.62839      0.00225        0.75571278     0.038537752   -941207.27      7276.3734      38.808907      33.567126      77761.535    
      4600   293.92805      0.0023         0.75848806     0.02251876    -941153.96      7137.9426      38.810844      33.579946      77811.751    
      4700   295.93028      0.00235        0.66095556    -0.073165676   -941107.86      7186.566       38.81278       33.592681      77864.856    
      4800   301.27818      0.0024         0.79116073     0.037861039   -941090.7       7316.4379      38.814716      33.576627      77752.77     
      4900   297.67352      0.00245        0.75330103     0.027837838   -940956.71      7228.9         38.816652      33.599668      77896.825    
      5000   303.15318      0.0025         0.82660508    -0.04188441    -941020.27      7361.9718      38.818588      33.572392      77760.438    
      5100   304.77         0.00255        0.78499654    -0.026190257   -941058.78      7401.2356      38.820525      33.601384      77779.652    
      5200   299.22155      0.0026         0.81077872     0.14965628    -941115.69      7266.4936      38.822461      33.574659      77616.385    
      5300   294.39673      0.00265        0.77274162    -0.1988273     -941068.53      7149.3244      38.824397      33.571436      77638.224    
      5400   297.44013      0.0027         0.8421327      0.10555051    -941094.66      7223.2324      38.826333      33.592582      77715.382    
      5500   302.56605      0.00275        0.76114787     0.0163697     -941089.64      7347.7134      38.828269      33.58275       77735.857    
      5600   297.4936       0.0028         0.85699162    -0.073145639   -940949.03      7224.5307      38.830206      33.566866      77663.044    
      5700   303.68199      0.00285        0.88493107     0.052491673   -941145.55      7374.8137      38.832142      33.603564      77670.528    
      5800   298.77696      0.0029         0.90789504     0.016027647   -941084.16      7255.6967      38.834078      33.565662      77538.428    
      5900   299.50961      0.00295        0.82468884    -0.088329238   -941122.99      7273.4888      38.836014      33.591011      77551.167    
      6000   302.23677      0.003          0.84821411     0.056442389   -941162.2       7339.7171      38.83795       33.590266      77412.62     
      6100   294.91343      0.00305        0.8209872     -0.014587536   -940963.64      7161.8723      38.839886      33.576392      77565.624    
      6200   299.44404      0.0031         0.96976114     0.056442405   -940941.13      7271.8966      38.841823      33.58123       77592.408    
      6300   304.20979      0.00315        0.91043729    -0.10478835    -940988.13      7387.6311      38.843759      33.571876      77583.633    
      6400   298.96328      0.0032         0.94809499     0.11727458    -940983.98      7260.2216      38.845695      33.61376       77667.654    
      6500   298.36599      0.00325        0.97998157    -0.031374625   -941074.9       7245.7164      38.847631      33.554149      77479.889    
      6600   302.94619      0.0033         0.98159479    -0.096980819   -941186.8       7356.9451      38.849567      33.601533      77590.668    
      6700   298.82014      0.00335        1.004651       0.15451289    -941057.59      7256.7453      38.851504      33.582352      77660.331    
      6800   304.09555      0.0034         1.003433      -0.11147129    -941115.69      7384.857       38.85344       33.566031      77685.43     
      6900   304.54629      0.00345        0.98469301     0.0131227     -941034.06      7395.8029      38.855376      33.602881      77852.68     
      7000   306.45569      0.0035         1.0432536      0.050270954   -941059.01      7442.1721      38.857312      33.556233      77814.891    
      7100   300.20883      0.00355        1.0623326     -0.074621294   -941098.33      7290.4692      38.859248      33.589697      77971.836    
      7200   297.55694      0.0036         1.0143288      0.075115273   -941054.96      7226.069       38.861185      33.575701      77989.101    
      7300   303.1726       0.00365        1.1632288     -0.065012983   -941119.51      7362.4433      38.863121      33.549232      77844.898    
      7400   304.68988      0.0037         1.0788446      0.022432558   -941076.74      7399.2901      38.865057      33.610712      77983.652    
      7500   302.39257      0.00375        1.0860397      0.08862913    -941021.8       7343.5006      38.866993      33.559624      77853.871    
      7600   296.92023      0.0038         1.1538311     -0.18560785    -941051.91      7210.6067      38.868929      33.574358      77845.883    
      7700   299.30164      0.00385        1.1267888      0.16857179    -941173.51      7268.4385      38.870865      33.604768      77910.466    
      7800   298.25697      0.0039         1.1291477     -0.051781425   -941135.67      7243.0689      38.872802      33.55508       77745.25     
      7900   300.25029      0.00395        1.2187791     -0.06061711    -941034.35      7291.4761      38.874738      33.59646       77813.42     
      8000   301.6295       0.004          1.1141414      0.089566643   -941025.96      7324.9697      38.876674      33.600863      77771.051    
      8100   301.39817      0.00405        1.2097214      0.0017175478  -941096.56      7319.3519      38.87861       33.560132      77754.343    
      8200   301.84409      0.0041         1.2822935     -0.12196082    -941136.79      7330.181       38.880546      33.583709      77804.449    
      8300   297.67904      0.00415        1.199431       0.072611937   -941074.62      7229.0341      38.882483      33.58333       77813.013    
      8400   296.88126      0.0042         1.2791733      0.072425196   -941142.84      7209.6603      38.884419      33.563688      77798.817    
      8500   293.62942      0.00425        1.2164807     -0.11264124    -941204.17      7130.6905      38.886355      33.582705      77916.364    
      8600   297.78816      0.0043         1.2718063     -0.01939354    -941172.2       7231.684       38.888291      33.57147       77798.576    
      8700   297.66949      0.00435        1.4235885      0.14684544    -941062.91      7228.8023      38.890227      33.570169      77766.599    
      8800   303.40926      0.0044         1.1868116     -0.094683078   -941128.82      7368.1906      38.892163      33.580969      77809.596    
      8900   297.7903       0.00445        1.3105985      0.03441138    -941024.01      7231.7361      38.8941        33.576074      77827.404    
      9000   295.16554      0.0045         1.3561905      0.02612358    -941011.42      7167.9947      38.896036      33.557513      77763.337    
      9100   300.24897      0.00455        1.3290095     -0.097436021   -941044.72      7291.4439      38.897972      33.571293      77696.427    
      9200   302.78236      0.0046         1.3290602      0.071697367   -940982.4       7352.9664      38.899908      33.585712      77735.948    
      9300   303.32078      0.00465        1.3032087     -0.025936963   -941012.43      7366.0419      38.901844      33.572184      77826.966    
      9400   300.9729       0.0047         1.384633      -0.019135812   -941095.34      7309.0243      38.903781      33.563168      77844.777    
      9500   295.74492      0.00475        1.3963997      0.013491075   -940998.64      7182.0647      38.905717      33.593194      77968.935    
      9600   303.02878      0.0048         1.385816       0.067087643   -941106.61      7358.9507      38.907653      33.557869      77883.958    
      9700   301.48661      0.00485        1.3840905     -0.16768626    -941034.26      7321.4996      38.909589      33.576896      77869.182    
      9800   301.74477      0.0049         1.407998       0.1877549     -941047.12      7327.769       38.911525      33.587219      77928.985    
      9900   298.42812      0.00495        1.4926732     -0.079996838   -941032.73      7247.2252      38.913462      33.560628      77905.318    
     10000   295.58149      0.005          1.4592901     -0.077668457   -941052.64      7178.0959      38.915398      33.573185      78028.025    
     10100   300.2323       0.00505        1.5157207      0.10045071    -941098.49      7291.0392      38.917334      33.576551      78009.188    
     10200   301.47804      0.0051         1.4906742      0.042246128   -941010.21      7321.2915      38.91927       33.570175      78063.565    
     10300   303.83614      0.00515        1.4926006     -0.11537655    -941028.38      7378.5573      38.921206      33.567561      77930.261    
     10400   298.75554      0.0052         1.467004       0.075674778   -940959.85      7255.1765      38.923142      33.595134      77882.122    
     10500   298.0651       0.00525        1.4942364      0.019528501   -940972.9       7238.4094      38.925079      33.57882       77944.964    
     10600   301.43764      0.0053         1.5829031     -0.08856996    -941081.9       7320.3105      38.927015      33.569586      77922.817    
     10700   299.30687      0.00535        1.5123214      0.03410001    -941090.22      7268.5655      38.928951      33.595273      78008.536    
     10800   298.70183      0.0054         1.6275296      0.11423788    -941060.04      7253.8722      38.930887      33.567776      78045.571    
     10900   303.93053      0.00545        1.5933509     -0.26938739    -941083.34      7380.8495      38.932823      33.559989      78020.968    
     11000   303.88048      0.0055         1.6484332      0.23153253    -940973.81      7379.6339      38.93476       33.610231      78221.671    
     11100   301.19292      0.00555        1.569962       0.052753916   -940945.62      7314.3674      38.936696      33.556714      78174.968    
     11200   293.81315      0.0056         1.6615978     -0.23875136    -940954.35      7135.1523      38.938632      33.551939      78064.156    
     11300   299.32901      0.00565        1.5878118      0.15124356    -941082.69      7269.1031      38.940568      33.615922      78164.285    
     11400   303.96133      0.0057         1.6581324      0.065083749   -941141.25      7381.5973      38.942504      33.540178      77921.015    
     11500   298.43043      0.00575        1.7043708     -0.22981182    -941067.61      7247.2814      38.94444       33.584339      78062.812    
     11600   294.6187       0.0058         1.6682496      0.18971735    -941112.26      7154.7149      38.946377      33.592702      78037.497    
     11700   295.41314      0.00585        1.6714395     -0.045779938   -941116.45      7174.0075      38.948313      33.555121      77954.406    
     11800   297.60726      0.0059         1.6553509     -0.094907711   -941031.42      7227.291       38.950249      33.587578      77960.159    
     11900   295.36766      0.00595        1.6918765      0.15527552    -940929.4       7172.9031      38.952185      33.584134      77906.671    
     12000   299.68491      0.006          1.6593293     -0.05985559    -940999.04      7277.7459      38.954121      33.552849      77884.709    
     12100   301.06244      0.00605        1.7169913     -0.065374798   -941000.83      7311.1988      38.956058      33.580529      78113.362    
     12200   299.90448      0.0061         1.8089266      0.093431139   -940909.77      7283.0782      38.957994      33.56157       78129.701    
     12300   304.74348      0.00615        1.7583645     -0.061840027   -941017.5       7400.5918      38.95993       33.588878      78245.316    
     12400   299.42302      0.0062         1.8009009      0.033006795   -941038.63      7271.3862      38.961866      33.561558      78164.784    
     12500   298.12826      0.00625        1.899492      -0.059422481   -941059.75      7239.9432      38.963802      33.5668        78126.295    
     12600   302.51958      0.0063         1.7949848      0.082955406   -941122.51      7346.5851      38.965739      33.577701      78059.716    
     12700   307.56517      0.00635        1.8092406     -0.024226128   -941141.52      7469.1155      38.967675      33.554192      77896.808    
     12800   301.06507      0.0064         1.8272568     -0.06128339    -940899.97      7311.2627      38.969611      33.574472      77944.081    
     12900   304.36823      0.00645        1.7992397      0.074825749   -940938.18      7391.4789      38.971547      33.578991      77917.602    
     13000   298.09946      0.0065         1.8912469      0.021980183   -940925.99      7239.2439      38.973483      33.555773      77887.112    
     13100   299.36057      0.00655        1.8512943     -0.10429522    -941051.24      7269.8694      38.975419      33.583174      77909.96     
     13200   296.95634      0.0066         1.9544146      0.082549937   -940988.2       7211.4837      38.977356      33.569811      77826.329    
     13300   302.15448      0.00665        1.8826785     -0.026325648   -941008.8       7337.7187      38.979292      33.555347      77685.308    
     13400   302.06558      0.0067         1.9321109      0.006064096   -940934.35      7335.5597      38.981228      33.587428      77684.598    
     13500   305.85855      0.00675        1.910291      -0.040582824   -941001.8       7427.6708      38.983164      33.565039      77682.151    
     13600   296.49105      0.0068         2.0929399      0.12956165    -940936.09      7200.1842      38.9851        33.559645      77629.465    
     13700   294.08255      0.00685        1.9712897     -0.16076318    -940957.25      7141.6947      38.987037      33.585021      77923.446    
     13800   299.29452      0.0069         2.1363373      0.15896999    -941071.35      7268.2655      38.988973      33.566155      77849.643    
     13900   300.37843      0.00695        2.002913      -0.13577947    -941001.76      7294.5878      38.990909      33.560049      77855.885    
     14000   304.11695      0.007          1.9786113      0.05659442    -941044.85      7385.3765      38.992845      33.574805      77830.768    
     14100   296.43819      0.00705        1.9765292      0.052496845   -941002.43      7198.9004      38.994781      33.578114      77774.877    
     14200   294.86639      0.0071         1.9904217     -0.079619253   -941063.74      7160.7298      38.996718      33.56295       77736.754    
     14300   298.01977      0.00715        2.1266434      0.018266237   -941095.94      7237.3087      38.998654      33.562809      77724.664    
     14400   299.91481      0.0072         2.0382964      0.011288554   -941016.17      7283.3291      39.00059       33.56591       77816.378    
     14500   303.36473      0.00725        2.1328186     -0.11233698    -941044.35      7367.1091      39.002526      33.569458      77804.137    
     14600   298.85465      0.0073         2.111302       0.17949504    -940971.29      7257.5834      39.004462      33.567705      77923.7      
     14700   298.72014      0.00735        2.1229973     -0.067509066   -940998.77      7254.3168      39.006398      33.554535      77932.901    
     14800   296.79994      0.0074         2.0788653     -0.12538069    -940991.43      7207.6854      39.008335      33.560088      77956.178    
     14900   301.34904      0.00745        2.2150612      0.20814192    -941050.07      7318.1589      39.010271      33.582456      77932.421    
     15000   301.73918      0.0075         2.1319808     -0.1138107     -940947.74      7327.6333      39.012207      33.555028      77827.877    
     15100   301.13334      0.00755        2.2147542     -0.061239191   -940966.94      7312.9206      39.014143      33.585145      77942.712    
     15200   300.34673      0.0076         2.1736195      0.1499702     -941081.18      7293.8181      39.016079      33.581882      77953.364    
     15300   299.06629      0.00765        2.221853      -0.065710355   -941118.79      7262.723       39.018016      33.529351      77826.758    
     15400   294.80627      0.0077         2.2213462     -0.065434387   -940978.98      7159.2699      39.019952      33.570147      77727.605    
     15500   298.67163      0.00775        2.2402422      0.075240557   -940955.25      7253.1389      39.021888      33.57814       77573.262    
     15600   303.42487      0.0078         2.1767075     -0.061133438   -941063.97      7368.5697      39.023824      33.553218      77484.594    
     15700   298.85066      0.00785        2.2184875      0.040124954   -941029.22      7257.4865      39.02576       33.567505      77627.66     
     15800   295.30808      0.0079         2.3299166      0.062886333   -941022.55      7171.4562      39.027696      33.564793      77619.008    
     15900   297.02573      0.00795        2.228751      -0.1062832     -940999.24      7213.1688      39.029633      33.576693      77703.523    
     16000   304.07793      0.008          2.3762782      0.076908113   -940993.93      7384.4291      39.031569      33.565313      77641.855    
     16100   302.31721      0.00805        2.2818113      0.00016796128 -940954.55      7341.6706      39.033505      33.574237      77712.477    
     16200   304.21764      0.0081         2.2483392     -0.0023225753  -941048.71      7387.8218      39.035441      33.562523      77731.98     
     16300   298.13602      0.00815        2.4273339     -0.040692761   -940991.5       7240.1316      39.037377      33.545996      77727.058    
     16400   298.7956       0.0082         2.3673048      0.0043560516  -941055.21      7256.1494      39.039314      33.58771       77829.779    
     16500   298.48975      0.00825        2.4405597      0.079623709   -941082.29      7248.7218      39.04125       33.540262      77753.136    
     16600   300.2733       0.0083         2.4355427     -0.13646921    -941058.1       7292.0348      39.043186      33.552912      77796.774    
     16700   297.71401      0.00835        2.4739979      0.080243335   -940894.52      7229.8833      39.045122      33.59029       77891.267    
     16800   298.15904      0.0084         2.4330597     -0.00052044672 -940867.01      7240.6907      39.047058      33.531648      77885.258    
     16900   302.14689      0.00845        2.4724801     -0.078472856   -940907.14      7337.5344      39.048995      33.567583      78057.624    
     17000   304.09545      0.0085         2.4302354      0.090509426   -941010.12      7384.8546      39.050931      33.577438      78078.436    
     17100   295.14244      0.00855        2.4124817     -0.089515902   -940926.31      7167.4337      39.052867      33.54342       78106.453    
     17200   302.10264      0.0086         2.5526847      0.052408793   -941034.02      7336.4598      39.054803      33.554178      78125.711    
     17300   301.05755      0.00865        2.4754384      0.016282806   -941009.16      7311.08        39.056739      33.569424      78073.625    
     17400   295.24154      0.0087         2.4665018     -0.030950963   -940922.65      7169.8402      39.058675      33.56718       78000.737    
     17500   295.29277      0.00875        2.5992198      0.069787979   -940995.41      7171.0843      39.060612      33.55066       77931.153    
     17600   299.94167      0.0088         2.4961569     -0.087616855   -941062.19      7283.9814      39.062548      33.568736      77877.642    
     17700   302.4373       0.00885        2.50979        0.053994898   -941056.09      7344.5868      39.064484      33.576852      77881.744    
     17800   304.0435       0.0089         2.5795395      0.036309863   -941041.38      7383.5929      39.06642       33.551388      77879.063    
     17900   301.52928      0.00895        2.5452606     -0.10902063    -940939.86      7322.536       39.068356      33.569325      77993.048    
     18000   296.14427      0.009          2.5636583      0.019754216   -940897.81      7191.7628      39.070293      33.550002      77933.503    
     18100   296.40329      0.00905        2.6624796      0.09386829    -940999.92      7198.0528      39.072229      33.555455      77991.448    
     18200   294.12545      0.0091         2.5792082     -0.098656447   -940897.99      7142.7364      39.074165      33.557859      78027.282    
     18300   300.69921      0.00915        2.6335807     -0.0011425771  -940891.43      7302.378       39.076101      33.559519      78116.278    
     18400   300.64805      0.0092         2.6574335      0.13305596    -940876.35      7301.1356      39.078037      33.569697      78182.496    
     18500   296.4059       0.00925        2.538361      -0.183609      -940844.82      7198.1163      39.079974      33.54824       78010.11     
     18600   294.84206      0.0093         2.6706105      0.11930828    -940861.21      7160.139       39.08191       33.591614      78021.246    
     18700   299.6854       0.00935        2.6499019      0.05251172    -941048.3       7277.758       39.083846      33.544571      77749.972    
     18800   296.93594      0.0094         2.7216554     -0.14370708    -941148.68      7210.9883      39.085782      33.547824      77624.165    
     18900   295.41074      0.00945        2.689524       0.0582328     -941084.16      7173.9492      39.087718      33.592591      77683.245    
     19000   299.56376      0.0095         2.720693       0.020127514   -941075.02      7274.8039      39.089654      33.541186      77542.156    
     19100   298.85262      0.00955        2.7675637     -0.053119945   -940992.27      7257.5342      39.091591      33.573206      77691.753    
     19200   301.57572      0.0096         2.6787007      0.035340429   -941014.55      7323.6637      39.093527      33.568836      77722.159    
     19300   300.15299      0.00965        2.7958571     -0.0074711273  -940936.44      7289.1132      39.095463      33.539001      77653.84     
     19400   297.94152      0.0097         2.7744732      0.014562095   -940917.34      7235.4084      39.097399      33.569028      77800.963    
     19500   298.04616      0.00975        2.7972023      0.055806965   -940940.23      7237.9496      39.099335      33.564726      77840.207    
     19600   302.16557      0.0098         2.8020263     -0.10125619    -940981.94      7337.9879      39.101272      33.54382       77873.602    
     19700   305.48591      0.00985        2.7379711      0.014684008   -940958.56      7418.6213      39.103208      33.57831       78056.939    
     19800   302.03475      0.0099         2.8522377      0.11852653    -940837.92      7334.811       39.105144      33.547356      78017.78     
     19900   298.26234      0.00995        2.7740329     -0.15978501    -940895.79      7243.1992      39.10708       33.558766      77984.279    
     20000   299.42484      0.01           2.8321463      0.074218811   -941033.77      7271.4302      39.109016      33.55031       78016.51     
     20100   295.12751      0.01005        2.8684708      0.0039043383  -940925.46      7167.0712      39.110952      33.556134      77951.869    
     20200   298.77319      0.0101         2.8215873     -0.055963818   -940879.89      7255.6052      39.112889      33.572487      78019.003    
     20300   299.75376      0.01015        2.8940583      0.11132916    -940857.76      7279.4181      39.114825      33.549595      77971.851    
     20400   302.0754       0.0102         2.8989604     -0.081767055   -940923.1       7335.7983      39.116761      33.557467      77985.441    
     20500   304.57812      0.01025        2.8634082      0.0075872534  -941070.22      7396.576       39.118697      33.567256      77958.776    
     20600   299.26223      0.0103         2.9050105      0.046148512   -941047.23      7267.4812      39.120633      33.546336      77972.135    
     20700   293.13893      0.01035        2.9409145     -0.071029971   -940930.1       7118.7791      39.12257       33.552192      78015.08     
     20800   299.82928      0.0104         2.9227306      0.070163099   -940960.93      7281.252       39.124506      33.567912      78209.62     
     20900   300.77405      0.01045        2.8746374     -0.068898685   -940827.97      7304.1953      39.126442      33.558312      78159.292    
     21000   304.95826      0.0105         2.9533128     -0.001835785   -940865.75      7405.8076      39.128378      33.549812      78263.903    
     21100   303.48596      0.01055        3.018114       0.1404289     -940916.86      7370.0531      39.130314      33.557469      78291        
     21200   298.71592      0.0106         2.9407192     -0.20302942    -940933.39      7254.2143      39.132251      33.548432      78199.812    
     21300   298.43226      0.01065        3.0491702      0.13057656    -940958.9       7247.3258      39.134187      33.559581      78171.599    
     21400   294.64533      0.0107         3.0517976      0.028614526   -940859.74      7155.3615      39.136123      33.543927      78115.705    
     21500   301.04816      0.01075        2.9809711     -0.14831933    -940852.48      7310.8521      39.138059      33.556421      78160.658    
     21600   303.1219       0.0108         3.0826549      0.12697364    -940823.66      7361.2121      39.139995      33.549526      78138.153    
     21700   304.39869      0.01085        3.0933946     -0.061307476   -940874.28      7392.2184      39.141931      33.542612      77957.739    
     21800   303.02474      0.0109         3.1188649      0.0046668563  -940934.61      7358.8527      39.143868      33.5714        77908.534    
     21900   298.92773      0.01095        3.0837604      0.05949565    -940895.27      7259.358       39.145804      33.547339      77853.39     
     22000   300.97746      0.011          3.1724356     -0.05325688    -940927.4       7309.1351      39.14774       33.566338      77839.089    
     22100   298.56072      0.01105        3.0598571      0.029757131   -940883.03      7250.4455      39.149676      33.564277      77883.385    
     22200   297.26819      0.0111         3.1863962      0.013037366   -940933.73      7219.0567      39.151612      33.546966      77971.745    
     22300   291.81377      0.01115        3.2063625     -0.062130716   -940894.48      7086.598       39.153549      33.550931      78010.12     
     22400   296.90646      0.0112         3.1848872      0.068055995   -940884.33      7210.2722      39.155485      33.559244      78142.003    
     22500   299.27623      0.01125        3.2075405     -0.035612426   -940814.23      7267.8213      39.157421      33.536287      78213.733    
     22600   300.97156      0.0113         3.1767565     -0.040120438   -940795.29      7308.9919      39.159357      33.570514      78376.242    
     22700   300.47742      0.01135        3.2870001      0.10666025    -940774.05      7296.9919      39.161293      33.545219      78321.31     
     22800   299.82024      0.0114         3.1538441     -0.13727256    -940802.97      7281.0324      39.163229      33.554356      78424.363    
     22900   297.37795      0.01145        3.2352034      0.08278009    -940846.9       7221.7223      39.165166      33.547352      78387.351    
     23000   299.2213       0.0115         3.2159415     -0.058156968   -940907.02      7266.4874      39.167102      33.541818      78333.902    
     23100   300.10544      0.01155        3.276272      -0.017867904   -940799.45      7287.9584      39.169038      33.548164      78352.782    
     23200   301.08728      0.0116         3.2336744      0.039361606   -940725.71      7311.8022      39.170974      33.542692      78222.762    
     23300   301.60571      0.01165        3.2091275      0.0061535576  -940784.04      7324.3919      39.17291       33.576653      78301.651    
     23400   296.51787      0.0117         3.3270035      0.062904084   -940764.65      7200.8354      39.174847      33.518664      78185.316    
     23500   297.72244      0.01175        3.3457616     -0.056645437   -940795.05      7230.088       39.176783      33.561703      78245.863    
     23600   295.33493      0.0118         3.2809677      0.050303465   -940698.41      7172.1081      39.178719      33.567367      78308.938    
     23700   304.15774      0.01185        3.4014448     -0.019799113   -940834.2       7386.367       39.180655      33.522079      78265.34     
     23800   302.39949      0.0119         3.3719322     -0.045376187   -940820.07      7343.6685      39.182591      33.563256      78356.035    
     23900   296.55851      0.01195        3.3319159      0.014902625   -940710.47      7201.8224      39.184528      33.568492      78325.042    
     24000   299.36675      0.012          3.4196107      0.10727944    -940791.89      7270.0197      39.186464      33.541093      78323.446    
     24100   295.24225      0.01205        3.4046372     -0.16229365    -940723.64      7169.8575      39.1884        33.53933       78203.953    
     24200   296.83443      0.0121         3.3802555      0.073424145   -940749.32      7208.523       39.190336      33.56967       78270.893    
     24300   303.46598      0.01215        3.4384891      0.025881914   -940740.69      7369.568       39.192272      33.528503      78184.425    
     24400   299.87244      0.0122         3.4356685     -0.054183738   -940573.15      7282.3         39.194208      33.562347      78286.513    
     24500   302.17192      0.01225        3.4421689      0.040507206   -940692.87      7338.1421      39.196145      33.554569      78319.031    
     24600   299.89121      0.0123         3.5724632     -0.0031563557  -940767.1       7282.7559      39.198081      33.548773      78242.14     
     24700   300.2503       0.01235        3.4848183     -0.061704008   -940853.18      7291.4764      39.200017      33.558642      78148.426    
     24800   301.16141      0.0124         3.4780111      0.03168077    -940885.05      7313.6023      39.201953      33.555257      78055.536    
     24900   298.60295      0.01245        3.5314214      0.024168034   -940800.03      7251.4709      39.203889      33.549065      77988.127    
     25000   297.02709      0.0125         3.4731989     -0.031327474   -940754.95      7213.2018      39.205826      33.57143       78060.882    
     25100   297.23502      0.01255        3.4999555      0.038938621   -940723.27      7218.2511      39.207762      33.533498      77960.097    
     25200   303.67245      0.0126         3.5455825     -0.056812337   -940815.99      7374.582       39.209698      33.557468      78100.897    
     25300   300.53409      0.01265        3.538333       0.079246131   -940735.9       7298.3681      39.211634      33.551373      78151.411    
     25400   295.81845      0.0127         3.6155164     -0.052066934   -940731.57      7183.8504      39.21357       33.537825      78140.714    
     25500   299.26679      0.01275        3.6392116     -0.0042949392  -940909.42      7267.5921      39.215507      33.550919      78206.157    
     25600   298.57368      0.0128         3.5979656      0.012336622   -940867.2       7250.7601      39.217443      33.554457      78270.998    
     25700   300.18557      0.01285        3.5948584      0.01182425    -940766.18      7289.9042      39.219379      33.537158      78333.294    
     25800   300.01208      0.0129         3.6615807     -0.045501788   -940723.84      7285.6911      39.221315      33.532965      78466.197    
     25900   299.651        0.01295        3.6229883      0.05216947    -940713.28      7276.9224      39.223251      33.553263      78461.839    
     26000   302.48473      0.013          3.6440046     -0.039968757   -940763.79      7345.7388      39.225187      33.548244      78431.935    
     26100   300.86632      0.01305        3.6626771     -0.014845679   -940780.52      7306.4362      39.227124      33.548647      78400.286    
     26200   297.66639      0.0131         3.7612756      0.072370992   -940843.81      7228.727       39.22906       33.546347      78274.106    
     26300   299.75867      0.01315        3.6658457     -0.060195865   -940904.69      7279.5372      39.230996      33.56047       78280.099    
     26400   301.0566       0.0132         3.6590005      0.018533747   -940837.59      7311.0569      39.232932      33.552942      78234.316    
     26500   303.89338      0.01325        3.7465776      0.016619378   -940759.79      7379.9472      39.234868      33.53874       78208.316    
     26600   303.61635      0.0133         3.7154943     -0.053813703   -940752.74      7373.2197      39.236805      33.555506      78250.621    
     26700   301.66686      0.01335        3.7847129      0.029412052   -940768.18      7325.8769      39.238741      33.543411      78287.863    
     26800   298.51195      0.0134         3.7286472      0.032279162   -940748.15      7249.261       39.240677      33.564123      78301.798    
     26900   299.25887      0.01345        3.8283712      0.0061342719  -940804.71      7267.3997      39.242613      33.546861      78200.785    
     27000   296.02714      0.0135         3.7625486     -0.1110661     -940770.68      7188.9183      39.244549      33.552055      78137.693    
     27100   296.85358      0.01355        3.7586976      0.14036718    -940793.95      7208.9882      39.246485      33.559108      78132.445    
     27200   303.5326       0.0136         3.8194328     -0.064935659   -940828.67      7371.1858      39.248422      33.528012      78132.189    
     27300   302.08683      0.01365        3.8104674     -0.024716848   -940715.79      7336.0759      39.250358      33.548499      78139.967    
     27400   302.5395       0.0137         3.8149227      0.091223684   -940730.82      7347.0687      39.252294      33.575137      78287.557    
     27500   298.81945      0.01375        3.8151105     -0.063135564   -940809.72      7256.7286      39.25423       33.526583      78254.969    
     27600   300.11987      0.0138         3.9147423     -0.031060295   -940890.34      7288.3089      39.256166      33.555576      78370.956    
     27700   296.16755      0.01385        3.8768884      0.026157623   -940732.77      7192.3281      39.258103      33.553353      78319.498    
     27800   300.95227      0.0139         3.9276432      0.0051890385  -940787.38      7308.5235      39.260039      33.548367      78242.305    
     27900   301.88694      0.01395        3.8935398      0.016663383   -940799.18      7331.2216      39.261975      33.547055      78275.918    
     28000   298.69525      0.014          3.9426183     -0.072859588   -940736.2       7253.7123      39.263911      33.537638      78103.883    
     28100   304.36299      0.01405        3.9974989      0.11500164    -940861.68      7391.3515      39.265847      33.552695      78103.702    
     28200   295.74748      0.0141         3.9295594     -0.082392234   -940662.85      7182.1268      39.267784      33.539193      77905.409    
     28300   302.93877      0.01415        3.9728416     -0.0030567115  -940825.43      7356.7648      39.26972       33.543739      77791.487    
     28400   303.19977      0.0142         3.9575206      0.11834125    -940861.8       7363.1031      39.271656      33.563088      77896.25     
     28500   301.37355      0.01425        3.9109754     -0.12809623    -940831.79      7318.7542      39.273592      33.535416      77881.188    
     28600   301.63428      0.0143         4.103804      -0.042584746   -940786.73      7325.0859      39.275528      33.540045      77881.94     
     28700   300.26122      0.01435        4.0361874      0.19108259    -940718.73      7291.7415      39.277464      33.581504      77995.965    
     28800   301.25308      0.0144         4.0214514     -0.18289581    -940697.3       7315.8286      39.279401      33.515509      77762.358    
     28900   304.81645      0.01445        4.0883042      0.041151506   -940760.51      7402.3636      39.281337      33.542165      77822.05     
     29000   301.13943      0.0145         4.0713783      0.14037684    -940733.32      7313.0686      39.283273      33.55969       77904.922    
     29100   301.45058      0.01455        4.0321959     -0.2004041     -940869.92      7320.6247      39.285209      33.522544      77796.767    
     29200   298.15381      0.0146         4.1136654      0.096422371   -940856.74      7240.5636      39.287145      33.54662       77833.157    
     29300   294.20556      0.01465        4.0610816      0.059001055   -940756.07      7144.6817      39.289082      33.575392      77935.366    
     29400   300.38306      0.0147         4.0978909     -0.11734751    -940745.72      7294.7003      39.291018      33.518413      77793.113    
     29500   299.29397      0.01475        4.2084434      0.094827176   -940645.36      7268.2521      39.292954      33.565393      77982.483    
     29600   301.43649      0.0148         4.1538222     -0.016827862   -940753.71      7320.2826      39.29489       33.538326      77924.053    
     29700   295.89961      0.01485        4.1507288     -0.055436705   -940702.23      7185.8214      39.296826      33.535077      78009.536    
     29800   300.67765      0.0149         4.1761903      0.037748456   -940812.27      7301.8544      39.298762      33.535987      78109.267    
     29900   298.35245      0.01495        4.1577689     -0.04138139    -940618.1       7245.3877      39.300699      33.54848       78167.347    
     30000   304.08714      0.015          4.1426713      0.019179186   -940669.39      7384.6527      39.302635      33.543328      78206.547    
     30100   301.41812      0.01505        4.2585468      0.077840098   -940658.71      7319.8365      39.304571      33.542436      78305.038    
     30200   299.73933      0.0151         4.1549273     -0.15252044    -940694.77      7279.0676      39.306507      33.539671      78269.133    
     30300   302.64676      0.01515        4.2872707      0.15363716    -940809.14      7349.6736      39.308443      33.555339      78390.77     
     30400   299.03968      0.0152         4.1800375      0.025148803   -940778.32      7262.0769      39.31038       33.526722      78279.491    
     30500   299.33156      0.01525        4.2209461     -0.21408731    -940743.95      7269.1649      39.312316      33.556323      78362.451    
     30600   300.63762      0.0153         4.3057158      0.25543598    -940651.96      7300.8822      39.314252      33.545933      78425.04     
     30700   299.69455      0.01535        4.2595035     -0.14242011    -940525.99      7277.9801      39.316188      33.530433      78393.731    
     30800   304.79351      0.0154         4.2390101     -0.11035094    -940656.81      7401.8067      39.318124      33.555901      78529.403    
     30900   301.90217      0.01545        4.2837523      0.22138794    -940767.2       7331.5913      39.320061      33.541309      78532.024    
     31000   294.19243      0.0155         4.2493919     -0.13134687    -940661.49      7144.3629      39.321997      33.545461      78491.925    
     31100   301.20934      0.01555        4.2889504     -0.028795509   -940781.62      7314.7662      39.323933      33.532907      78479.614    
     31200   302.89025      0.0156         4.3421067      0.14660795    -940731.87      7355.5866      39.325869      33.547768      78491.657    
     31300   298.86644      0.01565        4.3019094     -0.15087839    -940580.24      7257.8697      39.327805      33.534462      78461.041    
     31400   299.968        0.0157         4.366737       0.072462698   -940551.48      7284.6207      39.329741      33.551533      78593.029    
     31500   302.80935      0.01575        4.4366955      0.065261527   -940571.74      7353.622       39.331678      33.528826      78647.166    
     31600   300.45498      0.0158         4.3827785     -0.1368985     -940596.39      7296.4469      39.333614      33.54119       78694.014    
     31700   300.27379      0.01585        4.410135       0.12676222    -940725.58      7292.0468      39.33555       33.537025      78671.076    
     31800   294.95861      0.0159         4.3262889     -0.091334629   -940614.78      7162.9693      39.337486      33.529294      78670.871    
     31900   299.14612      0.01595        4.3980249      0.042956039   -940604.02      7264.6617      39.339422      33.544129      78634.408    
     32000   300.59096      0.016          4.4548013     -0.0090797217  -940600.62      7299.7491      39.341359      33.521116      78455.349    
     32100   299.94126      0.01605        4.4274947     -0.029804843   -940601.79      7283.9714      39.343295      33.555609      78433.491    
     32200   299.03336      0.0161         4.4448181      0.070894274   -940585.5       7261.9233      39.345231      33.527625      78274.781    
     32300   300.69062      0.01615        4.5495542     -0.078206278   -940613.79      7302.1694      39.347167      33.520765      78177.193    
     32400   298.13004      0.0162         4.5028358      0.0021929065  -940625.18      7239.9866      39.349103      33.54615       78147.572    
     32500   298.23066      0.01625        4.4777768      0.0818041     -940739.85      7242.43        39.35104       33.544373      78044.083    
     32600   297.93771      0.0163         4.5511573     -0.070652226   -940778.91      7235.3157      39.352976      33.525108      77959.026    
     32700   301.8007       0.01635        4.5501779     -0.046166323   -940787.64      7329.1273      39.354912      33.558733      78026.95     
     32800   298.51659      0.0164         4.6093749      0.10205856    -940588.17      7249.3738      39.356848      33.54009       78057.762    
     32900   303.91217      0.01645        4.5554832     -0.055719106   -940661.29      7380.4034      39.358784      33.531737      78116.208    
     33000   299.46236      0.0165         4.5786852     -0.015431547   -940669.68      7272.3414      39.36072       33.556827      78224.023    
     33100   300.51193      0.01655        4.5886045      0.06356022    -940864.54      7297.8299      39.362657      33.51994       78168.643    
     33200   299.27297      0.0166         4.5253691     -0.019560507   -940777.18      7267.7421      39.364593      33.555236      78334.622    
     33300   299.30312      0.01665        4.5834386     -0.014302209   -940661.26      7268.4744      39.366529      33.519492      78214.446    
     33400   300.01869      0.0167         4.6661509      0.024215337   -940605.28      7285.8517      39.368465      33.536547      78246.658    
     33500   296.46748      0.01675        4.5805303     -0.057932367   -940512.44      7199.6118      39.370401      33.570135      78298.609    
     33600   295.11966      0.0168         4.687096       0.032697196   -940519.05      7166.8804      39.372338      33.506192      78083.189    
     33700   298.27055      0.01685        4.7244232     -0.0050255455  -940681.91      7243.3988      39.374274      33.553989      78099.036    
     33800   299.06656      0.0169         4.6330375      0.036184774   -940696.78      7262.7295      39.37621       33.558268      78091.751    
     33900   296.07907      0.01695        4.7268013     -0.036249148   -940517.2       7190.1795      39.378146      33.50273       77863.137    
     34000   304.46863      0.017          4.7643553     -0.025978664   -940601.03      7393.9171      39.380082      33.555926      78017.198    
     34100   303.57386      0.01705        4.7011296      0.10618172    -940598.56      7372.1878      39.382018      33.534415      77953.788    
     34200   300.11344      0.0171         4.7656464     -0.0946044     -940603.7       7288.1527      39.383955      33.525617      77875.984    
     34300   298.77386      0.01715        4.7810604      0.020384912   -940626.51      7255.6214      39.385891      33.558012      78007.959    
     34400   299.14228      0.0172         4.7713128     -0.016056277   -940619.62      7264.5685      39.387827      33.522023      77843.517    
     34500   297.83259      0.01725        4.8880261     -0.013638206   -940520.97      7232.7631      39.389763      33.537513      77798.73     
     34600   303.44007      0.0173         4.81017        0.029701091   -940544.22      7368.9389      39.391699      33.560609      77865.944    
     34700   307.56572      0.01735        4.8247188     -0.0095149995  -940549.39      7469.1287      39.393636      33.519475      77754.107    
     34800   301.11895      0.0174         4.9084488     -0.023767387   -940593.02      7312.5712      39.395572      33.542833      77786.294    
     34900   303.60208      0.01745        4.8886926      0.089473749   -940746.89      7372.8732      39.397508      33.555689      77720.204    
     35000   302.27653      0.0175         4.9027656     -0.079476885   -940753.58      7340.6826      39.399444      33.525511      77639.146    
     35100   299.66014      0.01755        4.9468331      0.022351464   -940697.31      7277.1444      39.40138       33.557294      77827.052    
     35200   298.83643      0.0176         4.8455         0.04161251    -940622.65      7257.141       39.403317      33.54477       77980.618    
     35300   296.05153      0.01765        4.9087659     -0.091234209   -940433.3       7189.5105      39.405253      33.51317       78013.469    
     35400   304.73561      0.0177         4.8837466      0.066508996   -940534.06      7400.4006      39.407189      33.558429      78148.834    
     35500   304.61434      0.01775        4.895973      -0.017890281   -940572.37      7397.4556      39.409125      33.529587      78067.079    
     35600   298.19689      0.0178         4.9939723      0.02171891    -940503.5       7241.6099      39.411061      33.546932      78071.542    
     35700   301.32061      0.01785        4.9376541     -0.050769403   -940578         7317.4685      39.412997      33.532255      77948.677    
     35800   302.04677      0.0179         5.0086494      0.05924277    -940617.26      7335.103       39.414934      33.538233      77899.051    
     35900   297.22802      0.01795        4.9944494     -0.0043705527  -940614.58      7218.0814      39.41687       33.552513      78096.919    
     36000   295.02489      0.018          5.0195361     -0.049124075   -940565.7       7164.5791      39.418806      33.51207       78070.602    
     36100   301.50491      0.01805        5.1296333      0.055279083   -940694.97      7321.9441      39.420742      33.55205       78231.941    
     36200   298.79617      0.0181         4.9196069     -0.035278641   -940547.39      7256.1634      39.422678      33.54536       78343.442    
     36300   303.51403      0.01815        5.1266689      0.032041783   -940548.95      7370.735       39.424615      33.494364      78238.058    
     36400   304.34848      0.0182         5.029334      -0.07995666    -940595.18      7390.9993      39.426551      33.566655      78396.557    
     36500   298.94482      0.01825        4.9400887      0.11547368    -940568.46      7259.7732      39.428487      33.542896      78373.966    
     36600   300.43381      0.0183         5.1562261     -0.048227728   -940612.23      7295.9328      39.430423      33.504342      78174.786    
     36700   295.50853      0.01835        5.0411281     -0.084577524   -940473.33      7176.3239      39.432359      33.56055       78227.152    
     36800   300.09289      0.0184         5.0547722      0.10362081    -940528.53      7287.6536      39.434295      33.536887      78003.364    
     36900   299.48843      0.01845        5.1349846      0.028932783   -940492.9       7272.9746      39.436232      33.522449      77985.527    
     37000   300.6145       0.0185         5.0762332     -0.14728045    -940555.99      7300.3207      39.438168      33.541476      78032.365    
     37100   297.93856      0.01855        5.1732461      0.1478411     -940509.59      7235.3366      39.440104      33.550778      78073.956    
     37200   301.54405      0.0186         5.1670402     -0.022235065   -940539.9       7322.8945      39.44204       33.52984       78041.321    
     37300   306.41364      0.01865        5.1142315     -0.12343604    -940467.89      7441.151       39.443976      33.533759      77972.519    
     37400   307.36541      0.0187         5.1513326      0.15950956    -940426.83      7464.2642      39.445913      33.559933      78087.795    
     37500   305.34305      0.01875        5.2091165     -0.015366336   -940513.33      7415.152       39.447849      33.512264      77988.343    
     37600   303.43767      0.0188         5.1733645     -0.15061359    -940540.5       7368.8805      39.449785      33.525218      78089.306    
     37700   298.19149      0.01885        5.2592969      0.14647401    -940447.94      7241.4788      39.451721      33.561307      78175.309    
     37800   298.72041      0.0189         5.1526449     -0.067745594   -940539.08      7254.3233      39.453657      33.527566      78065.801    
     37900   297.47874      0.01895        5.339053      -0.052650945   -940622.04      7224.17        39.455594      33.518599      77999.868    
     38000   296.38511      0.019          5.2611436      0.07436512    -940657.74      7197.6115      39.45753       33.552031      77972.625    
     38100   299.93318      0.01905        5.2096746     -0.060379018   -940639.88      7283.7753      39.459466      33.526248      77750.395    
     38200   297.27179      0.0191         5.3316017      0.10699266    -940448.48      7219.1442      39.461402      33.538479      77715.493    
     38300   302.49745      0.01915        5.2415157     -0.10696363    -940505.67      7346.0477      39.463338      33.535654      77615.773    
     38400   304.16532      0.0192         5.3658749      0.046531324   -940560.72      7386.5512      39.465274      33.531931      77522.033    
     38500   297.43369      0.01925        5.2426616      0.027976908   -940553.63      7223.0758      39.467211      33.558047      77680.733    
     38600   302.03277      0.0193         5.3481591     -0.0027051291  -940706.42      7334.763       39.469147      33.502869      77665.006    
     38700   302.36841      0.01935        5.509349      -0.038057938   -940680.7       7342.914       39.471083      33.523487      77836.642    
     38800   299.52842      0.0194         5.3154397      0.018295722   -940547.71      7273.9457      39.473019      33.572167      78018.961    
     38900   300.06432      0.01945        5.3520992     -0.0003997011  -940510.26      7286.9599      39.474955      33.513594      77941.027    
     39000   297.90264      0.0195         5.4568973      0.0050292126  -940448.27      7234.4641      39.476892      33.537027      78014.447    
     39100   298.86483      0.01955        5.3177296     -0.054556108   -940465.82      7257.8306      39.478828      33.540637      78100.303    
     39200   296.95936      0.0196         5.4707687      0.079447118   -940371.08      7211.557       39.480764      33.520294      78022.363    
     39300   297.00343      0.01965        5.4314616     -0.045009127   -940210.96      7212.6272      39.4827        33.536921      78179.123    
     39400   303.53496      0.0197         5.4219899     -0.039186474   -940366.79      7371.243       39.484636      33.546903      78156.762    
     39500   300.31162      0.01975        5.5170477      0.10610282    -940393.31      7292.9655      39.486573      33.523267      78075.467    
     39600   297.83283      0.0198         5.4302758     -0.11494549    -940429.23      7232.769       39.488509      33.548215      78125.405    
     39700   298.40161      0.01985        5.5709069      0.073080576   -940450.36      7246.5815      39.490445      33.509638      78020.2      
     39800   297.14241      0.0199         5.4861275     -0.022893108   -940371.81      7216.0022      39.492381      33.543104      78098.608    
     39900   301.85331      0.01995        5.4326327      0.021612674   -940386.87      7330.4047      39.494317      33.538021      78160.961    
     40000   298.68421      0.02           5.6038903     -0.033298034   -940275.45      7253.4443      39.496253      33.494673      78089.905    
[...]
    189700   297.18541      0.09485        24.356117     -0.092771902   -927968.13      7217.0465      42.394724      33.209938      80910.18     
    189800   301.35811      0.0949         24.389821      0.1300388     -928110.01      7318.3792      42.39666       33.196943      80944.978    
    189900   291.07557      0.09495        24.321869     -0.10002485    -927916.8       7068.671       42.398596      33.213949      81058.326    
    190000   293.95265      0.095          24.43814       0.058931899   -927929.79      7138.5401      42.400532      33.199118      80965.255    
    190100   301.46848      0.09505        24.459792     -0.026905164   -927947.97      7321.0593      42.402468      33.211587      81010.118    
    190200   302.47226      0.0951         24.380784     -0.018870881   -927909.92      7345.4359      42.404404      33.199126      81067.295    
    190300   296.91931      0.09515        24.276502     -0.014937642   -927813.37      7210.5842      42.406341      33.225963      81315.486    
    190400   298.24781      0.0952         24.32611       0.084882607   -927952.08      7242.8464      42.408277      33.176134      81279.98     
    190500   296.28007      0.09525        24.291156     -0.11193643    -927957.45      7195.0607      42.410213      33.199641      81262.23     
    190600   296.92658      0.0953         24.413925      0.0079883398  -927846.46      7210.761       42.412149      33.19482       81291.653    
    190700   302.26929      0.09535        24.293918      0.062633705   -927791.17      7340.5067      42.414085      33.208405      81336.343    
    190800   302.25334      0.0954         24.30729      -0.092631222   -927712.7       7340.1195      42.416022      33.196935      81194.497    
    190900   303.08413      0.09545        24.451377      0.13754584    -927740.82      7360.2949      42.417958      33.179155      81139.047    
    191000   300.81499      0.0955         24.458918     -0.10176976    -927809.21      7305.1896      42.419894      33.213708      81115.408    
    191100   298.75502      0.09555        24.566316      0.10707693    -927822.21      7255.164       42.42183       33.183245      80948.356    
    191200   295.64298      0.0956         24.4518       -0.13626515    -927741.85      7179.5892      42.423766      33.193013      80963.234    
    191300   297.20024      0.09565        24.576732      0.057752245   -927721.57      7217.4066      42.425703      33.229995      81036.546    
    191400   298.45388      0.0957         24.538046      0.049092771   -927751.44      7247.8508      42.427639      33.176533      80901.126    
    191500   297.48232      0.09575        24.578613     -0.10246673    -927926.74      7224.2569      42.429575      33.202308      80962.762    
    191600   293.4951       0.0958         24.615454      0.1207714     -927790.1       7127.4286      42.431511      33.197141      81115.333    
    191700   295.36608      0.09585        24.525179     -0.14616601    -927679.62      7172.8646      42.433447      33.19879       81187.877    
    191800   301.17024      0.0959         24.448673      0.10985521    -927698.84      7313.8168      42.435383      33.232087      81339.13     
    191900   298.23879      0.09595        24.445095     -0.050495315   -927534.08      7242.6274      42.43732       33.191979      81296.525    
    192000   305.56973      0.096          24.517871      0.066972792   -927623.07      7420.6569      42.439256      33.207882      81204.153    
    192100   298.41158      0.09605        24.608444     -0.06393767    -927501.38      7246.8235      42.441192      33.210131      81229.801    
    192200   294.39153      0.0961         24.668218      0.077901966   -927585.07      7149.1982      42.443128      33.178018      81078.339    
    192300   296.05071      0.09615        24.682585     -0.090039154   -927608.33      7189.4907      42.445064      33.198756      81026.745    
    192400   302.05514      0.0962         24.713283      0.011677405   -927653.88      7335.3062      42.447001      33.195545      81022.409    
    192500   303.97019      0.09625        24.635482      0.0018069158  -927635.29      7381.8126      42.448937      33.211575      80984.535    
    192600   300.23309      0.0963         24.689646      0.039038442   -927611.06      7291.0583      42.450873      33.208966      80962.181    
    192700   294.85907      0.09635        24.736542      0.0089667504  -927603.42      7160.5521      42.452809      33.194754      80944.382    
    192800   296.74007      0.0964         24.796098     -0.01007354    -927604.61      7206.2316      42.454745      33.180641      80912.898    
    192900   303.87838      0.09645        24.704989     -0.018661202   -927619.66      7379.583       42.456681      33.195674      80972.669    
    193000   302.84573      0.0965         24.647686      0.017511172   -927477.91      7354.5053      42.458618      33.198488      80962.214    
    193100   305.68264      0.09655        24.675586      0.01655006    -927560.01      7423.3987      42.460554      33.193508      81062.873    
    193200   300.55928      0.0966         24.675224     -0.034278788   -927521.3       7298.9799      42.46249       33.21003       81254.13     
    193300   295.66813      0.09665        24.811788      0.040017492   -927477.53      7180.1999      42.464426      33.195321      81166.931    
    193400   298.21993      0.0967         24.711958     -0.15453409    -927502.4       7242.1693      42.466362      33.223752      81229.47     
    193500   300.59709      0.09675        24.672146      0.17940056    -927386.91      7299.898       42.468299      33.205947      81035.817    
    193600   303.12368      0.0968         24.807597     -0.043827369   -927420.88      7361.2553      42.470235      33.18427       80908.402    
    193700   300.58928      0.09685        24.95363      -0.0085774919  -927415.6       7299.7083      42.472171      33.146409      80743.899    
    193800   297.36394      0.0969         25.016421     -0.050004172   -927405.34      7221.382       42.474107      33.20854       80882.536    
    193900   296.56796      0.09695        24.954541      0.083101204   -927408.87      7202.0518      42.476043      33.163755      80710.007    
    194000   301.69776      0.097          24.88799      -0.11179352    -927428.19      7326.6274      42.47798       33.236031      80878.712    
    194100   303.64681      0.09705        24.930139      0.11018937    -927303.73      7373.9593      42.479916      33.18678       80856.786    
    194200   302.23772      0.0971         24.8853       -0.027188747   -927311.07      7339.74        42.481852      33.225068      81095.329    
    194300   302.83757      0.09715        24.979991     -0.023706066   -927397.77      7354.3072      42.483788      33.178877      81029.213    
    194400   297.90855      0.0972         24.948571      0.046445353   -927295.66      7234.6077      42.485724      33.200085      81196.706    
    194500   300.21597      0.09725        24.820651     -0.050446035   -927303.48      7290.6426      42.48766       33.160989      81192.516    
    194600   303.08694      0.0973         24.843084      0.0012491907  -927354.67      7360.3631      42.489597      33.218509      81412.628    
    194700   301.07021      0.09735        24.900755      0.069857252   -927331.97      7311.3876      42.491533      33.162569      81274.221    
    194800   301.05375      0.0974         24.920783     -0.094824254   -927297.1       7310.9878      42.493469      33.177083      81297.113    
    194900   298.24596      0.09745        24.993278      0.032377385   -927181.23      7242.8015      42.495405      33.182682      81116.955    
    195000   302.96347      0.0975         24.945983     -0.03675247    -927156.61      7357.3647      42.497341      33.211335      80994.377    
    195100   305.55258      0.09755        25.015372      0.050389128   -927146.17      7420.2404      42.499278      33.194158      80927.692    
    195200   304.19705      0.0976         25.000772     -0.052731506   -927251.89      7387.3217      42.501214      33.210601      80895.767    
    195300   300.00948      0.09765        25.128085      0.10068455    -927207.02      7285.6281      42.50315       33.180269      80810.949    
    195400   301.69808      0.0977         25.095351     -0.078236493   -927236.76      7326.6352      42.505086      33.185277      80851.247    
    195500   298.64173      0.09775        25.140594      0.047254022   -927213.25      7252.4128      42.507022      33.19048       80858.721    
    195600   293.61592      0.0978         25.121371     -0.049830359   -927158.65      7130.3627      42.508958      33.176531      80844.68     
    195700   296.92635      0.09785        25.224313      0.044862447   -927207.54      7210.7553      42.510895      33.187431      80957.437    
    195800   299.51285      0.0979         25.172411     -0.04676548    -927087.69      7273.5675      42.512831      33.160193      80937.325    
    195900   302.6509       0.09795        25.120145      0.014561661   -927091.92      7349.7741      42.514767      33.19972       80955.088    
    196000   300.64862      0.098          25.158457      0.051409714   -927077.08      7301.1494      42.516703      33.17518       80900.118    
    196100   302.29309      0.09805        25.046064     -0.085430129   -927215.54      7341.0848      42.518639      33.212179      81081.891    
    196200   297.57876      0.0981         25.069361      0.12452311    -927218.11      7226.5988      42.520576      33.18894       81149.831    
    196300   297.75966      0.09815        25.06459      -0.12744089    -927180.27      7230.992       42.522512      33.170344      81157.903    
    196400   299.02163      0.0982         25.279858      0.098395865   -926956.68      7261.6386      42.524448      33.199619      81244.667    
    196500   300.40092      0.09825        25.18315      -0.057029804   -926968.7       7295.134       42.526384      33.15834       81007.548    
    196600   300.46802      0.0983         25.254289     -0.017364138   -927014.14      7296.7636      42.52832       33.199185      81025.456    
    196700   298.00305      0.09835        25.279815      0.074835517   -927005.25      7236.9025      42.530257      33.174833      80942.557    
    196800   298.15122      0.0984         25.289164     -0.12031061    -927006.07      7240.5009      42.532193      33.157311      80876.271    
    196900   299.54886      0.09845        25.353012      0.086204877   -926933.24      7274.442       42.534129      33.200185      80946.836    
    197000   301.64374      0.0985         25.311359     -0.029611006   -926854.47      7325.3154      42.536065      33.164037      80911.666    
    197100   300.41139      0.09855        25.297439     -0.037444251   -926872.52      7295.3883      42.538001      33.220154      81027.511    
    197200   294.68311      0.0986         25.336514      0.13677042    -926826.22      7156.2789      42.539937      33.195029      80999.172    
    197300   300.31709      0.09865        25.285309     -0.1016315     -926962.06      7293.0983      42.541874      33.173943      80937.539    
    197400   299.7637       0.0987         25.418936      0.084990511   -926942.27      7279.6593      42.54381       33.176026      80932.953    
    197500   298.75114      0.09875        25.426263     -0.096903795   -926896.11      7255.0697      42.545746      33.18942       81084.27     
    197600   302.13894      0.0988         25.406961      0.11170544    -926855.83      7337.3413      42.547682      33.169658      81019.476    
    197700   298.2725       0.09885        25.277335     -0.19069402    -926652.41      7243.4462      42.549618      33.191657      81289.857    
    197800   300.32111      0.0989         25.292479      0.1829596     -926665.15      7293.1959      42.551555      33.181627      81394.177    
    197900   302.83961      0.09895        25.283452     -0.11380573    -926895.15      7354.3567      42.553491      33.181566      81442.493    
    198000   298.43841      0.099          25.323866      0.04337696    -926840.45      7247.4751      42.555427      33.191193      81433.312    
    198100   297.60874      0.09905        25.293286      0.019437969   -926768.75      7227.3269      42.557363      33.191391      81417.689    
    198200   300.68758      0.0991         25.296432     -0.078638043   -926764.75      7302.0954      42.559299      33.162266      81358.426    
    198300   298.20971      0.09915        25.352619      0.0786935     -926595.2       7241.9212      42.561236      33.192772      81497.211    
    198400   301.60295      0.0992         25.381717      0.020472929   -926542.23      7324.325       42.563172      33.154205      81318.858    
    198500   303.74545      0.09925        25.365584     -0.078538176   -926654.42      7376.3549      42.565108      33.174037      81391.951    
    198600   299.68602      0.0993         25.438175      0.036265271   -926691.37      7277.773       42.567044      33.173939      81315.884    
    198700   301.68809      0.09935        25.352912     -0.050726011   -926753.12      7326.3926      42.56898       33.201988      81220.789    
    198800   296.29655      0.0994         25.378716      0.088024526   -926673.1       7195.4609      42.570916      33.161112      81267.593    
    198900   297.90753      0.09945        25.411839     -0.079605531   -926744.61      7234.583       42.572853      33.186399      81319.579    
    199000   299.16247      0.0995         25.500362      0.040165623   -926789.08      7265.0588      42.574789      33.169979      81320.034    
    199100   301.91853      0.09955        25.43444      -0.017516977   -926736.51      7331.9887      42.576725      33.160552      81395.812    
    199200   304.03505      0.0996         25.484159      0.0015850124  -926665.68      7383.3876      42.578661      33.171168      81273.022    
    199300   301.53491      0.09965        25.519805     -0.0039415433  -926573.53      7322.6726      42.580597      33.160789      81294.937    
    199400   299.36443      0.0997         25.467654      0.0094216934  -926524.26      7269.9632      42.582534      33.182361      81440.265    
    199500   297.35087      0.09975        25.435315     -0.055908349   -926597.37      7221.0647      42.58447       33.182487      81470.749    
    199600   297.87852      0.0998         25.456388      0.11215265    -926646.86      7233.8785      42.586406      33.214778      81528.256    
    199700   298.9411       0.09985        25.490405     -0.026134736   -926572.03      7259.6829      42.588342      33.152812      81350.665    
    199800   300.68515      0.0999         25.617367     -0.12491899    -926495.58      7302.0366      42.590278      33.175745      81316.04     
    199900   301.37736      0.09995        25.625645      0.18959583    -926463.37      7318.8465      42.592214      33.188664      81201.242    
    200000   296.3215       0.1            25.538628     -0.11697537    -926546.11      7196.0668      42.594151      33.150475      81105.059    
    200100   296.06465      0.10005        25.542586      0.016454587   -926571.66      7189.8293      42.596087      33.205035      81304.292    
    200200   300.20627      0.1001         25.494237      0.052366592   -926577.8       7290.4071      42.598023      33.160926      81250.259    
    200300   303.90407      0.10015        25.535089     -0.027500032   -926568.55      7380.2068      42.599959      33.188845      81384.831    
    200400   301.05911      0.1002         25.616976     -0.0030822441  -926454.07      7311.118       42.601895      33.188305      81425.171    
    200500   303.59611      0.10025        25.666994      0.025803961   -926524.5       7372.7282      42.603832      33.187805      81287.167    
    200600   297.03379      0.1003         25.740154     -0.08061066    -926475.96      7213.3644      42.605768      33.153625      81145.17     
    200700   297.09841      0.10035        25.735554      0.050282372   -926478.19      7214.9338      42.607704      33.194607      81230.732    
    200800   300.77629      0.1004         25.693948      0.0016619837  -926431.79      7304.2499      42.60964       33.164611      81085.49     
    200900   301.92863      0.10045        25.748924     -0.01634222    -926393.36      7332.234       42.611576      33.185966      81229.128    
    201000   296.88458      0.1005         25.756464      0.021923404   -926250.67      7209.7409      42.613513      33.17556       81284.435    
    201100   304.21365      0.10055        25.683818      0.0086875801  -926276.22      7387.7249      42.615449      33.181434      81293.316    
    201200   302.56533      0.1006         25.697625     -0.030394598   -926184.46      7347.6959      42.617385      33.178826      81292.84     
    201300   299.80671      0.10065        25.670862      0.034899416   -926258.97      7280.7039      42.619321      33.166688      81312.067    
    201400   299.43234      0.1007         25.830039     -0.011518185   -926295.84      7271.6125      42.621257      33.168404      81238.823    
    201500   298.75343      0.10075        25.829251     -0.0054606892  -926277.49      7255.1254      42.623193      33.189253      81289.87     
    201600   300.94722      0.1008         25.757726     -0.009990542   -926204.75      7308.4008      42.62513       33.17788       81271.379    
    201700   306.79911      0.10085        25.806592      0.0056242941  -926232.52      7450.5119      42.627066      33.184734      81249.235    
    201800   302.50233      0.1009         25.742547     -0.034199124   -926182.84      7346.166       42.629002      33.172424      81305.848    
    201900   300.37596      0.10095        25.842586      0.10725027    -926202.18      7294.5279      42.630938      33.180859      81346.627    
    202000   301.39133      0.101          25.915429     -0.034648393   -926236.84      7319.1859      42.632874      33.158185      81302.675    
    202100   300.50789      0.10105        25.905766     -0.053832125   -926223.12      7297.7319      42.634811      33.174613      81388.954    
    202200   299.91959      0.1011         25.936467      0.049808796   -926256.51      7283.4451      42.636747      33.169019      81326.818    
    202300   297.12109      0.10115        25.851408     -0.12008781    -926255.26      7215.4845      42.638683      33.18517       81158.156    
    202400   298.98248      0.1012         25.940012      0.22159145    -926248.24      7260.6878      42.640619      33.191269      81232.381    
    202500   301.04935      0.10125        25.864481     -0.26567084    -926113.41      7310.8811      42.642555      33.151574      81103.776    
    202600   302.10827      0.1013         26.080482      0.18676579    -926087.8       7336.5964      42.644491      33.193605      81228.829    
    202700   294.7035       0.10135        25.898936     -0.10343543    -925952.13      7156.7742      42.646428      33.149073      81263.314    
    202800   299.88239      0.1014         26.010465      0.082691135   -926167.1       7282.5418      42.648364      33.168409      81206.701    
    202900   298.42175      0.10145        26.017176     -0.062197662   -926226.88      7247.0705      42.6503        33.160676      81110.676    
    203000   296.66765      0.1015         26.117166      0.051546377   -926303.43      7204.473       42.652236      33.147711      81007.081    
    203100   296.55783      0.10155        25.996885     -0.1175348     -926305.34      7201.8059      42.654172      33.190303      81163.687    
    203200   300.73454      0.1016         26.033427      0.10608832    -926192.25      7303.236       42.656109      33.173048      81221.982    
