ITEM: TIMESTEP
0
ITEM: NUMBER OF ATOMS
179
ITEM: BOX BOUNDS pp pp pp
-2.6348099999999999e+01 2.6348099999999999e+01
-2.5981400000000001e+01 2.4881399999999999e+01
-2.0000000000000000e+01 2.0000000000000000e+01
ITEM: ATOMS id type element q x y z
137 2 O -0.4 -3.11714 -10.0699 -0.552657
139 3 H 0.2 -5.12372 -10.7394 -0.0366476
73 4 C 0.2 -0.000766833 -7.20613 -0.179342
134 2 O -0.4 0.215281 -9.96164 -1.08846
135 3 H 0.2 0.547613 -10.8154 -1.37523
71 4 C 0.2 2.4822 -7.14421 -0.0426954
72 1 C 0.014 1.26501 -7.91527 -0.200035
78 4 C 0.2 1.29458 -9.33409 -0.439761
133 2 O -0.4 2.4886 -10.0407 -0.728594
141 2 O -0.4 -8.95528 -4.70381 -0.426068
144 2 O -0.4 -10.1891 -2.19864 -1.42659
145 3 H 0.2 -10.9655 -2.71185 -1.18939
96 1 C 0.014 -8.83187 -0.675864 -0.0884483
100 4 C 0.2 -10.1146 -1.2115 -0.416533
178 2 O -0.4 -3.89463 -5.09745 -1.62845
179 3 H 0.2 -3.78339 -6.00992 -1.91298
177 2 O -0.4 -0.22765 -6.68275 -1.47542
68 1 C 0.014 -1.26751 -5.04008 -0.188597
69 1 C 0.014 -2.52635 -5.76315 -0.0906946
81 1 C 0.014 -1.31575 -0.734302 -0.173699
82 1 C 0.014 -2.52428 -2.89324 -0.0607458
83 1 C 0.014 -2.55525 -1.45554 -0.0879167
84 1 C 0.014 -3.81463 -0.745802 -0.0876343
85 4 C 0.2 -3.76795 -5.03674 -0.200815
86 1 C 0.014 -3.77628 -3.6016 -0.0793616
87 1 C 0.014 -5.03425 -2.88175 -0.004662
88 1 C 0.014 -5.06661 -1.45459 -0.0369721
89 1 C 0.014 -6.33413 -0.752987 -0.0285069
61 4 C 0.2 -0.0622797 -1.4536 -0.229823
63 1 C 0.014 -0.035022 -2.88801 -0.223359
67 4 C 0.2 -0.0218076 -5.76727 -0.393606
153 2 O -0.4 3.08652 -0.905929 -1.37441
161 2 O -0.4 0.555844 -1.0595 -1.43173
166 2 O -0.4 5.38135 -1.68695 -1.58389
167 3 H 0.2 4.66131 -1.39738 -2.15834
169 2 O -0.4 4.09627 -4.86282 -1.62962
170 3 H 0.2 3.30211 -4.98836 -2.16196
173 2 O -0.4 1.43239 -4.85542 -1.98546
174 3 H 0.2 0.803815 -5.42809 -2.44522
41 4 C 0.2 1.19148 -0.727151 -0.189299
42 4 C 0.2 3.74473 -0.695534 -0.125734
43 4 C 0.2 2.47477 -1.40655 -0.193275
44 4 C 0.2 2.48191 -2.85544 -0.173941
46 4 C 0.2 5.04621 -1.41546 -0.180202
49 4 C 0.2 3.78183 -4.97787 -0.225542
62 1 C 0.014 1.23362 -3.58858 -0.332658
65 4 C 0.2 2.49093 -5.70486 -0.222178
66 4 C 0.2 1.2381 -5.01838 -0.559546
147 2 O -0.4 -10.2083 2.27282 -1.12814
148 3 H 0.2 -10.8329 2.95911 -0.882302
111 1 C 0.014 -7.53537 1.43006 -0.0144102
112 1 C 0.014 -7.48904 2.8524 -0.0391498
156 2 O -0.4 -0.645898 1.23113 -1.34227
5 1 C 0.014 -2.56826 5.72691 -0.0635356
6 1 C 0.014 -1.33069 5.00284 -0.0323987
101 4 C 0.2 -1.34045 0.710408 -0.206353
102 1 C 0.014 -3.82551 0.687521 -0.127172
103 1 C 0.014 -2.5923 1.4134 -0.169663
104 1 C 0.014 -2.59487 2.85946 -0.143698
105 1 C 0.014 -6.31101 0.687523 -0.0605279
106 1 C 0.014 -5.06431 1.40624 -0.11514
107 1 C 0.014 -5.05594 2.84942 -0.135594
108 1 C 0.014 -3.82388 3.57925 -0.152576
109 1 C 0.014 -3.81753 5.01435 -0.0952197
113 1 C 0.014 -6.28368 3.58053 -0.0864786
114 1 C 0.014 -6.28975 5.00476 -0.0577818
115 1 C 0.014 -5.06161 5.73328 -0.0594628
1 4 C 0.2 -0.0964413 1.43598 -0.0489595
7 4 C 0.2 -0.0683338 5.69656 -0.126787
149 2 O -0.4 2.33397 2.18073 -1.21342
152 2 O -0.4 4.98926 2.06796 -1.32936
159 2 O -0.4 0.481949 5.15946 -1.31101
8 4 C 0.2 1.20832 4.99679 -0.0842343
9 4 C 0.2 2.48975 5.74118 -0.168923
25 4 C 0.2 3.75626 5.0444 -0.0166907
27 4 C 0.2 4.97412 2.87489 -0.153985
28 4 C 0.2 4.9754 1.43523 -0.0604115
31 1 C 0.014 5.01809 5.7733 -0.097122
32 1 C 0.014 6.2298 5.01002 -0.125859
33 1 C 0.014 6.22202 3.59377 -0.158838
34 1 C 0.014 7.45704 2.89606 -0.154076
38 3 H 0.2 7.45313 5.69826 -0.14603
39 3 H 0.2 8.6591 3.61913 -0.191948
10 1 C 0.014 -3.79756 7.86636 -0.0164068
11 1 C 0.014 -2.55845 7.16118 -0.0522336
12 1 C 0.014 -1.30613 7.84361 -0.0738487
18 3 H 0.2 -1.22551 9.24484 -0.0479639
116 1 C 0.014 -5.038 7.15817 -0.010987
13 1 C 0.014 -0.0678096 7.13402 -0.153991
162 2 O -0.4 2.61228 6.48117 -1.38873
124 2 O -0.4 6.23478 9.38668 -0.395836
14 4 C 0.2 1.18473 7.83001 -0.144808
15 4 C 0.2 2.48219 7.1957 -0.177602
16 4 C 0.2 3.74347 7.86523 -0.0103948
30 1 C 0.014 5.03416 7.22533 -0.0884051
37 4 C 0.2 6.24006 8.00503 -0.0999339
125 3 H 0.2 7.15933 9.60967 -0.535075
123 2 O -0.4 7.52442 7.43614 -0.286422
74 4 C 0.2 -1.24082 -7.8148 0.230755
75 1 C 0.014 -2.52778 -7.19419 0.135547
76 1 C 0.014 -3.78288 -7.89253 0.288103
79 2 O -0.4 -1.14985 -8.84171 1.22722
80 4 C 0.2 -3.94219 -9.30855 0.306934
90 1 C 0.014 -4.97786 -7.13248 0.354742
97 3 H 0.2 -6.17082 -7.84574 0.534211
136 3 H 0.2 -0.265623 -9.21612 1.21374
138 2 O -0.4 -5.25281 -9.85378 0.315183
56 1 C 0.014 4.94258 -7.08886 0.292816
60 3 H 0.2 6.11784 -7.81014 0.540346
70 1 C 0.014 3.73702 -7.79286 0.126006
77 3 H 0.2 3.77365 -9.1927 0.0652546
130 2 O -0.4 7.67642 -7.12926 0.322125
142 3 H 0.2 -9.51039 -5.33452 0.0375371
94 1 C 0.014 -7.5408 -2.92038 0.194268
95 1 C 0.014 -7.60109 -1.47036 0.00777436
98 3 H 0.2 -7.40927 -5.65224 0.558534
99 4 C 0.2 -8.72028 -3.67005 0.519775
140 2 O -0.4 -8.58806 -4.5025 1.66792
143 2 O -0.4 -10.9205 -1.55244 0.699727
64 4 C 0.2 -1.25988 -3.60873 0.0260124
91 1 C 0.014 -4.97498 -5.72986 0.16031
92 1 C 0.014 -6.18968 -5.01464 0.27976
93 1 C 0.014 -6.26381 -3.59953 0.142705
175 2 O -0.4 -1.16153 -3.63341 1.45702
176 3 H 0.2 -1.96569 -4.01034 1.82692
45 4 C 0.2 6.27728 -0.678291 0.104383
47 4 C 0.2 5.01194 -2.81268 0.298969
48 4 C 0.2 3.74247 -3.54752 0.0577281
53 1 C 0.014 6.26835 -3.55585 0.226834
54 1 C 0.014 6.29176 -4.99901 0.275742
55 1 C 0.014 5.01258 -5.67186 0.146606
164 2 O -0.4 5.09404 -2.57828 1.73461
165 3 H 0.2 4.43087 -3.12065 2.17644
171 2 O -0.4 2.3237 -6.26484 1.07438
172 2 O -0.4 2.80712 -3.27987 1.12822
129 3 H 0.2 10.6832 -0.860037 0.308932
50 4 C 0.2 8.74075 -0.647386 0.194257
51 1 C 0.014 7.52436 -1.38759 0.157098
52 1 C 0.014 7.49162 -2.80453 0.154956
57 2 O -0.4 9.92185 -1.44862 0.275609
58 3 H 0.2 8.72268 -3.47624 0.159932
59 4 C 0.2 7.5391 -5.72279 0.423311
131 2 O -0.4 8.76798 -5.13561 0.807271
132 3 H 0.2 9.37934 -5.87583 0.872586
110 1 C 0.014 -8.80784 0.771105 0.0156181
117 4 C 0.2 -10.0363 1.52723 0.0652282
118 3 H 0.2 -8.74164 3.48266 0.0105966
119 3 H 0.2 -7.52215 5.66861 0.00996036
146 2 O -0.4 -10.058 2.62985 0.969501
2 4 C 0.2 -1.35593 3.56966 0.0124426
160 2 O -0.4 -0.954051 3.15042 1.29616
3 4 C 0.2 -0.100292 2.86719 0.169469
4 4 C 0.2 1.18741 3.5881 0.30592
21 4 C 0.2 1.14857 0.7047 0.125607
22 4 C 0.2 2.43683 2.88872 0.0194412
23 4 C 0.2 2.41554 1.43891 0.00133459
24 4 C 0.2 3.70189 0.737488 0.159167
26 4 C 0.2 3.72208 3.59336 0.00670527
29 4 C 0.2 6.25963 0.760267 0.0768377
150 2 O -0.4 3.7128 0.631348 1.60153
151 3 H 0.2 4.56104 0.301525 1.92638
154 2 O -0.4 1.06254 0.575287 1.56683
155 3 H 0.2 1.92648 0.415312 1.96381
157 2 O -0.4 1.38415 3.81687 1.72874
158 3 H 0.2 0.661178 3.41313 2.22544
163 2 O -0.4 3.84087 4.34731 1.21093
168 2 O -0.4 6.25251 0.0592002 1.31462
126 2 O -0.4 10.194 2.89054 0.15307
35 1 C 0.014 7.52845 1.47761 0.00231078
36 1 C 0.014 8.81036 0.789773 0.115495
40 4 C 0.2 10.0709 1.47773 0.13376
127 2 O -0.4 11.3179 0.837841 0.293684
128 3 H 0.2 11.9589 1.55235 0.326229
17 3 H 0.2 -3.80292 9.26876 0.0167786
120 3 H 0.2 -6.24307 7.87335 0.0377435
121 3 H 0.2 1.94838 9.62537 0.0889261
122 3 H 0.2 4.60616 9.53394 0.535387
19 2 O -0.4 1.06175 9.24495 0.0546009
20 2 O -0.4 3.69874 9.21068 0.474647
ITEM: TIMESTEP
1000
ITEM: NUMBER OF ATOMS
179
ITEM: BOX BOUNDS pp pp pp
-2.6348099999999999e+01 2.6348099999999999e+01
-2.5981400000000001e+01 2.4881399999999999e+01
-2.0000000000000000e+01 2.0000000000000000e+01
ITEM: ATOMS id type element q x y z
137 2 O -0.4 -3.27088 -10.0479 -0.299747
139 3 H 0.2 -5.31972 -10.6037 0.40337
73 4 C 0.2 -0.0627088 -7.26208 -0.296609
134 2 O -0.4 0.0840163 -10.0558 -1.10988
135 3 H 0.2 0.377826 -10.8456 -1.56886
71 4 C 0.2 2.40855 -7.20706 -0.30704
72 1 C 0.014 1.19119 -7.97672 -0.404282
78 4 C 0.2 1.24212 -9.39262 -0.667074
133 2 O -0.4 2.35833 -9.97872 -1.32869
141 2 O -0.4 -7.45795 -1.01638 2.5784
144 2 O -0.4 -10.2742 -2.21634 -1.17839
145 3 H 0.2 -10.6706 -3.06027 -1.38998
96 1 C 0.014 -8.29498 -1.16853 -0.752597
100 4 C 0.2 -8.88503 -2.31142 -1.37653
178 2 O -0.4 -4.21577 -5.26427 -1.14831
179 3 H 0.2 -4.54121 -6.16974 -1.20479
177 2 O -0.4 -0.423442 -6.76336 -1.57201
68 1 C 0.014 -1.25709 -5.05483 -0.257297
69 1 C 0.014 -2.49119 -5.75248 0.0817146
81 1 C 0.014 -1.29077 -0.716365 -0.608946
82 1 C 0.014 -2.45278 -2.87687 -0.269359
83 1 C 0.014 -2.48637 -1.43944 -0.438342
84 1 C 0.014 -3.71224 -0.709918 -0.39678
85 4 C 0.2 -3.72111 -5.00002 0.160588
86 1 C 0.014 -3.67543 -3.56289 0.0157982
87 1 C 0.014 -4.86897 -2.80774 0.174182
88 1 C 0.014 -4.88426 -1.41619 -0.114391
89 1 C 0.014 -6.09507 -0.716483 -0.0957648
61 4 C 0.2 -0.0608759 -1.4615 -0.690427
63 1 C 0.014 -0.043164 -2.91253 -0.683642
67 4 C 0.2 -0.0736523 -5.82606 -0.544325
153 2 O -0.4 3.08439 -0.834182 -1.67653
161 2 O -0.4 0.573853 -0.963688 -1.83618
166 2 O -0.4 5.3313 -1.74523 -1.83706
167 3 H 0.2 4.62501 -1.4517 -2.4217
169 2 O -0.4 4.01119 -4.93643 -1.96926
170 3 H 0.2 3.26819 -5.23482 -2.50892
173 2 O -0.4 1.29079 -5.06709 -2.29066
174 3 H 0.2 0.620117 -5.65762 -2.65096
41 4 C 0.2 1.17208 -0.734333 -0.553023
42 4 C 0.2 3.68948 -0.713239 -0.390828
43 4 C 0.2 2.43766 -1.42467 -0.559398
44 4 C 0.2 2.4257 -2.88366 -0.596019
46 4 C 0.2 4.98389 -1.44389 -0.442653
49 4 C 0.2 3.68786 -5.02836 -0.561252
62 1 C 0.014 1.19797 -3.63304 -0.780292
65 4 C 0.2 2.41573 -5.77506 -0.519464
66 4 C 0.2 1.16558 -5.09203 -0.855932
147 2 O -0.4 -9.67907 2.05531 -2.04791
148 3 H 0.2 -10.472 2.54898 -1.81974
111 1 C 0.014 -7.49993 1.22307 -0.508755
112 1 C 0.014 -7.56005 2.65991 -0.353078
156 2 O -0.4 -0.562401 1.39516 -1.5441
5 1 C 0.014 -2.63497 5.65481 0.525309
6 1 C 0.014 -1.39092 4.94744 0.414435
101 4 C 0.2 -1.32667 0.737479 -0.52378
102 1 C 0.014 -3.77386 0.728301 -0.458988
103 1 C 0.014 -2.57417 1.45811 -0.428274
104 1 C 0.014 -2.61794 2.8771 -0.143466
105 1 C 0.014 -6.2059 0.665382 -0.394963
106 1 C 0.014 -5.0237 1.43658 -0.420906
107 1 C 0.014 -5.11057 2.85282 -0.227438
108 1 C 0.014 -3.87842 3.57293 -0.0357341
109 1 C 0.014 -3.89075 4.96607 0.305257
113 1 C 0.014 -6.39458 3.50341 -0.128391
114 1 C 0.014 -6.39092 4.91954 0.167369
115 1 C 0.014 -5.15453 5.65349 0.372195
1 4 C 0.2 -0.106536 1.41575 -0.204375
7 4 C 0.2 -0.13832 5.65395 0.340414
149 2 O -0.4 2.3078 2.27399 -1.21436
152 2 O -0.4 4.942 2.18421 -1.31193
159 2 O -0.4 0.310501 5.27211 -0.946332
8 4 C 0.2 1.13453 4.96495 0.19323
9 4 C 0.2 2.40103 5.72827 0.0951389
25 4 C 0.2 3.67982 5.03625 0.182551
27 4 C 0.2 4.91562 2.86417 -0.061032
28 4 C 0.2 4.91889 1.41645 -0.118261
31 1 C 0.014 4.93188 5.77854 0.130033
32 1 C 0.014 6.15087 5.01538 0.0977003
33 1 C 0.014 6.15359 3.59071 0.00640784
34 1 C 0.014 7.38549 2.88732 -0.0434452
38 3 H 0.2 7.35815 5.7325 0.137255
39 3 H 0.2 8.58273 3.61584 -0.00821044
10 1 C 0.014 -3.86658 7.76107 0.770069
11 1 C 0.014 -2.61788 7.07406 0.710462
12 1 C 0.014 -1.36456 7.76122 0.730119
18 3 H 0.2 -1.29279 9.159 0.873586
116 1 C 0.014 -5.1069 7.05639 0.650657
13 1 C 0.014 -0.139244 7.08239 0.466709
162 2 O -0.4 2.44908 6.53059 -1.09247
124 2 O -0.4 6.14264 9.3644 -0.344482
14 4 C 0.2 1.09174 7.79899 0.348468
15 4 C 0.2 2.38728 7.18157 0.162191
16 4 C 0.2 3.64392 7.87323 0.231552
30 1 C 0.014 4.92987 7.23048 0.109654
37 4 C 0.2 6.12856 8.00957 0.0717118
125 3 H 0.2 7.05888 9.64291 -0.262388
123 2 O -0.4 7.37738 7.50025 0.502652
74 4 C 0.2 -1.25617 -7.85875 0.233379
75 1 C 0.014 -2.50057 -7.18591 0.323953
76 1 C 0.014 -3.74165 -7.82316 0.679324
79 2 O -0.4 -1.12526 -8.93279 1.17469
80 4 C 0.2 -4.02967 -9.2177 0.571452
90 1 C 0.014 -4.834 -7.0103 1.07584
97 3 H 0.2 -5.98417 -7.70619 1.46104
136 3 H 0.2 -0.303998 -9.39359 1.00936
138 2 O -0.4 -5.35781 -9.70316 0.735384
56 1 C 0.014 4.87368 -7.14666 -0.125834
60 3 H 0.2 6.07558 -7.83255 0.134072
70 1 C 0.014 3.6689 -7.8595 -0.227025
77 3 H 0.2 3.67316 -9.25708 -0.323123
130 2 O -0.4 7.07111 -7.00104 1.42127
142 3 H 0.2 -8.30836 -0.585737 2.73183
94 1 C 0.014 -7.18929 -2.62722 1.00227
95 1 C 0.014 -7.23458 -1.50935 0.0809723
98 3 H 0.2 -7.12659 -5.31334 1.72624
99 4 C 0.2 -7.79784 -2.38492 2.28173
140 2 O -0.4 -9.21434 -2.24077 2.09144
143 2 O -0.4 -8.31983 -3.66218 -1.32115
64 4 C 0.2 -1.21174 -3.60404 -0.224989
91 1 C 0.014 -4.83176 -5.59496 0.866581
92 1 C 0.014 -5.96115 -4.76857 1.17467
93 1 C 0.014 -6.00917 -3.40162 0.805197
175 2 O -0.4 -0.894724 -3.44181 1.16982
176 3 H 0.2 -1.62722 -3.02508 1.6286
45 4 C 0.2 6.21742 -0.716826 -0.119024
47 4 C 0.2 4.89667 -2.84265 0.023136
48 4 C 0.2 3.65303 -3.59139 -0.286543
53 1 C 0.014 6.13967 -3.59748 0.0453291
54 1 C 0.014 6.11555 -5.03052 0.217051
55 1 C 0.014 4.90576 -5.72154 -0.162679
164 2 O -0.4 4.87733 -2.58181 1.45116
165 3 H 0.2 4.29827 -3.23083 1.86806
171 2 O -0.4 2.29057 -6.30657 0.802421
172 2 O -0.4 2.65614 -3.31027 0.724688
129 3 H 0.2 10.6109 -0.865169 -0.170717
50 4 C 0.2 8.66694 -0.687069 -0.107629
51 1 C 0.014 7.45335 -1.44452 -0.093602
52 1 C 0.014 7.38611 -2.87331 -0.0344084
57 2 O -0.4 9.85874 -1.46684 -0.185984
58 3 H 0.2 8.5817 -3.59539 0.0899068
59 4 C 0.2 7.22154 -5.70235 0.864192
131 2 O -0.4 8.04938 -4.96403 1.73976
132 3 H 0.2 8.45901 -5.62159 2.3053
110 1 C 0.014 -8.57878 0.286526 -0.874948
117 4 C 0.2 -9.81411 0.790138 -1.41938
118 3 H 0.2 -8.86884 3.15039 -0.444407
119 3 H 0.2 -7.62183 5.58656 0.215591
146 2 O -0.4 -10.4912 1.60058 -0.46684
2 4 C 0.2 -1.39618 3.53541 0.182209
160 2 O -0.4 -0.996951 2.89217 1.36845
3 4 C 0.2 -0.136167 2.80636 0.206268
4 4 C 0.2 1.13027 3.52287 0.425997
21 4 C 0.2 1.12311 0.659395 -0.0658958
22 4 C 0.2 2.38697 2.86501 0.078028
23 4 C 0.2 2.36679 1.42028 -0.077234
24 4 C 0.2 3.6437 0.69488 0.0154153
26 4 C 0.2 3.6633 3.58302 0.13282
29 4 C 0.2 6.20391 0.722631 -0.0423499
150 2 O -0.4 3.64894 0.459283 1.43986
151 3 H 0.2 4.42407 -0.0581028 1.70253
154 2 O -0.4 1.00724 0.361866 1.35907
155 3 H 0.2 1.87011 0.356938 1.79221
157 2 O -0.4 1.31126 3.59184 1.86108
158 3 H 0.2 0.625008 3.07334 2.29229
163 2 O -0.4 3.77516 4.28183 1.37371
168 2 O -0.4 6.18454 -0.0670367 1.14025
126 2 O -0.4 10.1326 2.84747 0.0768313
35 1 C 0.014 7.46397 1.45448 -0.0489809
36 1 C 0.014 8.74491 0.753887 -0.0799636
40 4 C 0.2 10.0084 1.44612 -0.116015
127 2 O -0.4 11.2587 0.845229 -0.388096
128 3 H 0.2 11.89 1.56973 -0.325025
17 3 H 0.2 -3.88645 9.15788 0.907215
120 3 H 0.2 -6.30186 7.77628 0.768036
121 3 H 0.2 1.83887 9.61604 0.493213
122 3 H 0.2 4.52251 9.54895 0.70746
19 2 O -0.4 0.963103 9.21405 0.534364
20 2 O -0.4 3.61359 9.22767 0.693364
ITEM: TIMESTEP
2000
ITEM: NUMBER OF ATOMS
179
ITEM: BOX BOUNDS pp pp pp
-2.6348099999999999e+01 2.6348099999999999e+01
-2.5981400000000001e+01 2.4881399999999999e+01
-2.0000000000000000e+01 2.0000000000000000e+01
ITEM: ATOMS id type element q x y z
137 2 O -0.4 -5.11689 -8.81257 2.87222
73 4 C 0.2 0.0551425 -7.23569 -0.0405346
134 2 O -0.4 0.150158 -10.1359 0.774834
135 3 H 0.2 0.487634 -11.0192 0.945052
71 4 C 0.2 2.50698 -7.13045 -0.161691
72 1 C 0.014 1.30577 -7.92583 0.0860508
78 4 C 0.2 1.3125 -9.32446 0.526261
133 2 O -0.4 2.50037 -10.1177 0.572514
56 1 C 0.014 4.98872 -7.06808 -0.146461
70 1 C 0.014 3.76446 -7.75186 0.00204947
77 3 H 0.2 3.78835 -9.09062 0.382558
144 2 O -0.4 -10.7699 -1.96476 -0.0861322
145 3 H 0.2 -11.4168 -1.71661 0.585457
96 1 C 0.014 -8.62307 -0.807448 -0.691398
100 4 C 0.2 -9.77207 -0.971583 0.153347
143 2 O -0.4 -10.2416 0.148562 0.989155
178 2 O -0.4 -4.1248 -5.63422 -1.74188
179 3 H 0.2 -5.086 -5.61403 -1.76753
177 2 O -0.4 -0.311263 -7.02412 -1.38643
68 1 C 0.014 -1.21639 -5.14342 -0.411046
81 1 C 0.014 -1.29208 -0.790761 -0.472954
82 1 C 0.014 -2.50827 -2.99409 -0.375564
83 1 C 0.014 -2.51272 -1.55007 -0.363656
84 1 C 0.014 -3.75704 -0.821767 -0.443684
88 1 C 0.014 -4.98922 -1.58354 -0.387632
89 1 C 0.014 -6.23035 -0.895268 -0.512368
61 4 C 0.2 -0.0524769 -1.48765 -0.610977
63 1 C 0.014 -0.0195973 -2.94365 -0.662383
67 4 C 0.2 0.0297371 -5.8745 -0.541827
64 4 C 0.2 -1.2389 -3.70497 -0.297682
153 2 O -0.4 3.00221 -0.709411 -1.76374
161 2 O -0.4 0.537212 -0.932918 -1.77016
166 2 O -0.4 5.17953 -1.54869 -2.34247
167 3 H 0.2 4.58525 -0.919279 -2.77268
169 2 O -0.4 3.86217 -5.11086 -2.2866
170 3 H 0.2 3.08953 -5.52869 -2.68578
173 2 O -0.4 1.27906 -5.31087 -2.39734
174 3 H 0.2 0.679233 -6.04683 -2.59549
41 4 C 0.2 1.18498 -0.749517 -0.484053
42 4 C 0.2 3.72447 -0.686118 -0.547946
43 4 C 0.2 2.45582 -1.40477 -0.674422
44 4 C 0.2 2.48845 -2.85082 -0.840101
46 4 C 0.2 4.99413 -1.37832 -0.889022
49 4 C 0.2 3.75894 -5.01751 -0.835765
62 1 C 0.014 1.2407 -3.63163 -0.941511
65 4 C 0.2 2.50029 -5.74125 -0.591039
66 4 C 0.2 1.24225 -5.11388 -0.959958
45 4 C 0.2 6.20361 -0.607954 -0.667465
48 4 C 0.2 3.76228 -3.5495 -0.707724
55 1 C 0.014 5.02074 -5.70013 -0.562329
129 3 H 0.2 10.5563 -0.769672 -0.49059
50 4 C 0.2 8.63959 -0.521636 -0.764354
51 1 C 0.014 7.44724 -1.30335 -0.901211
52 1 C 0.014 7.48081 -2.74014 -1.11789
57 2 O -0.4 9.79992 -1.33624 -0.683793
147 2 O -0.4 -10.5649 0.325493 -2.75208
148 3 H 0.2 -11.1555 1.03961 -2.97649
111 1 C 0.014 -7.37694 1.28933 -1.08895
112 1 C 0.014 -7.36432 2.73671 -1.18296
110 1 C 0.014 -8.57776 0.529796 -1.28604
117 4 C 0.2 -9.79493 1.08531 -1.84918
118 3 H 0.2 -8.61051 3.34905 -1.3841
146 2 O -0.4 -9.84522 2.45364 -2.27298
156 2 O -0.4 -0.511213 1.38321 -1.28078
101 4 C 0.2 -1.33253 0.659503 -0.356622
102 1 C 0.014 -3.75163 0.631228 -0.563632
103 1 C 0.014 -2.55097 1.35967 -0.379257
104 1 C 0.014 -2.57609 2.81723 -0.156212
105 1 C 0.014 -6.17078 0.556866 -0.79578
106 1 C 0.014 -4.95006 1.3657 -0.716728
107 1 C 0.014 -4.96345 2.82133 -0.729673
108 1 C 0.014 -3.76544 3.55175 -0.433176
113 1 C 0.014 -6.17438 3.51097 -0.997394
1 4 C 0.2 -0.141853 1.36741 0.0689304
149 2 O -0.4 2.28258 2.44645 -0.974551
152 2 O -0.4 5.02231 2.48899 -1.23644
159 2 O -0.4 0.618288 5.12889 -0.929545
27 4 C 0.2 4.96284 2.91687 0.135974
28 4 C 0.2 4.96403 1.50087 -0.203072
21 4 C 0.2 1.11419 0.628295 0.0983888
23 4 C 0.2 2.37626 1.42252 0.0215006
29 4 C 0.2 6.22069 0.803292 -0.334673
34 1 C 0.014 7.41071 2.86827 0.295025
39 3 H 0.2 8.6155 3.46996 0.679617
35 1 C 0.014 7.46726 1.52854 -0.206158
36 1 C 0.014 8.72988 0.866267 -0.401956
40 4 C 0.2 10.006 1.47638 -0.19974
127 2 O -0.4 11.151 0.920715 -0.840973
128 3 H 0.2 11.8646 1.55966 -0.813717
162 2 O -0.4 2.8726 6.53441 -0.718342
124 2 O -0.4 4.99366 8.39695 3.66137
125 3 H 0.2 5.39987 8.1986 4.51053
139 3 H 0.2 -3.5148 -8.31371 4.18105
74 4 C 0.2 -1.13765 -7.6808 0.618915
75 1 C 0.014 -2.44817 -7.18118 0.436613
76 1 C 0.014 -3.66088 -7.73593 1.05023
79 2 O -0.4 -0.951741 -8.03725 1.97188
80 4 C 0.2 -3.85338 -8.52535 2.25852
90 1 C 0.014 -4.8375 -7.05975 0.798807
97 3 H 0.2 -5.94065 -7.47892 1.54469
136 3 H 0.2 -0.0424338 -8.32507 2.11097
138 2 O -0.4 -3.2464 -7.86015 3.37717
60 3 H 0.2 6.20135 -7.75942 0.0266306
130 2 O -0.4 7.57937 -7.23776 -1.08215
141 2 O -0.4 -7.96576 -4.48291 2.41518
94 1 C 0.014 -7.42243 -2.88191 0.553525
95 1 C 0.014 -7.47868 -1.58573 -0.204485
98 3 H 0.2 -6.9879 -5.53744 1.49792
99 4 C 0.2 -8.31657 -3.32979 1.64909
140 2 O -0.4 -8.72187 -2.49149 2.72708
69 1 C 0.014 -2.46118 -5.87187 -0.202261
85 4 C 0.2 -3.73036 -5.18832 -0.390307
86 1 C 0.014 -3.75121 -3.7264 -0.399689
87 1 C 0.014 -5.00099 -3.01672 -0.224047
91 1 C 0.014 -4.86258 -5.75472 0.302197
92 1 C 0.014 -5.999 -4.98522 0.662966
93 1 C 0.014 -6.21247 -3.65663 0.24279
175 2 O -0.4 -1.09329 -3.64951 1.149
176 3 H 0.2 -0.742316 -4.47371 1.51112
47 4 C 0.2 5.05909 -2.82549 -0.558021
53 1 C 0.014 6.29531 -3.55348 -0.887989
54 1 C 0.014 6.30556 -5.02885 -0.813157
164 2 O -0.4 5.40839 -2.85217 0.867404
165 3 H 0.2 4.61027 -2.89865 1.40505
171 2 O -0.4 2.50321 -6.06881 0.79827
172 2 O -0.4 2.9433 -3.26699 0.443909
58 3 H 0.2 8.73098 -3.35589 -1.32153
59 4 C 0.2 7.55659 -5.79636 -0.935269
131 2 O -0.4 8.75102 -5.25714 -1.53423
132 3 H 0.2 9.2953 -6.0311 -1.72432
142 3 H 0.2 -8.32684 -4.37664 3.30212
119 3 H 0.2 -7.34364 5.54263 -1.51627
5 1 C 0.014 -2.51416 5.71167 -0.311524
6 1 C 0.014 -1.34948 5.02925 0.132359
109 1 C 0.014 -3.7435 4.98376 -0.489142
114 1 C 0.014 -6.16064 4.93006 -1.08387
115 1 C 0.014 -4.96056 5.66042 -0.835204
7 4 C 0.2 -0.0814204 5.72551 0.141245
2 4 C 0.2 -1.38517 3.56346 0.196659
160 2 O -0.4 -1.14055 3.04872 1.50353
3 4 C 0.2 -0.177279 2.79937 0.4629
8 4 C 0.2 1.17088 4.98725 0.373828
9 4 C 0.2 2.4949 5.72006 0.432226
25 4 C 0.2 3.73686 4.98448 0.701692
31 1 C 0.014 4.94947 5.69039 1.0226
32 1 C 0.014 6.18677 4.93344 1.01582
33 1 C 0.014 6.2049 3.60026 0.454446
4 4 C 0.2 1.09601 3.54885 0.723123
22 4 C 0.2 2.36978 2.86141 0.369338
24 4 C 0.2 3.69208 0.719993 -0.064613
26 4 C 0.2 3.69217 3.54481 0.47903
150 2 O -0.4 3.81441 0.437521 1.3494
151 3 H 0.2 4.7049 0.148909 1.60201
154 2 O -0.4 1.16032 0.26767 1.50422
155 3 H 0.2 2.04127 -0.0308475 1.76712
157 2 O -0.4 1.17318 3.8564 2.14835
158 3 H 0.2 0.678057 3.19186 2.64849
163 2 O -0.4 3.75414 4.08093 1.79029
168 2 O -0.4 6.29153 -0.17829 0.682907
38 3 H 0.2 7.32556 5.51405 1.59376
126 2 O -0.4 10.1128 2.85586 0.134363
10 1 C 0.014 -3.66284 7.78166 -1.03248
11 1 C 0.014 -2.47418 7.13539 -0.549312
12 1 C 0.014 -1.27419 7.88452 -0.353199
18 3 H 0.2 -1.16109 9.24784 -0.687222
116 1 C 0.014 -4.87794 7.03408 -1.18628
13 1 C 0.014 -0.0581282 7.18355 -0.0734632
17 3 H 0.2 -3.67982 9.16114 -1.3058
120 3 H 0.2 -5.93439 7.73141 -1.78514
14 4 C 0.2 1.22775 7.85982 0.0959199
15 4 C 0.2 2.44947 7.17802 0.460717
16 4 C 0.2 3.60593 7.78269 1.09243
30 1 C 0.014 4.75351 7.02259 1.5703
37 4 C 0.2 5.49922 7.3849 2.77613
121 3 H 0.2 2.23856 9.5298 -0.148682
122 3 H 0.2 4.39917 9.29553 2.00558
19 2 O -0.4 1.32352 9.24396 -0.268135
20 2 O -0.4 3.61235 9.17443 1.45909
123 2 O -0.4 5.9561 6.31438 3.60861
ITEM: TIMESTEP
3000
ITEM: NUMBER OF ATOMS
179
ITEM: BOX BOUNDS pp pp pp
-2.6348099999999999e+01 2.6348099999999999e+01
-2.5981400000000001e+01 2.4881399999999999e+01
-2.0000000000000000e+01 2.0000000000000000e+01
ITEM: ATOMS id type element q x y z
177 2 O -0.4 -0.521365 -6.73407 -1.2983
71 4 C 0.2 2.35854 -7.28681 -0.561998
56 1 C 0.014 4.92478 -7.19207 -0.597691
70 1 C 0.014 3.64065 -7.87264 -0.817147
60 3 H 0.2 6.13249 -7.9013 -0.574805
130 2 O -0.4 7.59051 -7.08995 0.0151566
144 2 O -0.4 -8.391 -1.36819 -2.81595
96 1 C 0.014 -8.66994 -0.60314 -0.449659
95 1 C 0.014 -7.49725 -1.46749 -0.200063
178 2 O -0.4 -4.02746 -5.38575 -0.966248
179 3 H 0.2 -4.51882 -4.71615 -1.46698
68 1 C 0.014 -1.28708 -5.18513 0.217658
81 1 C 0.014 -1.28587 -0.800576 -0.0934513
82 1 C 0.014 -2.50832 -2.96139 0.259692
83 1 C 0.014 -2.51444 -1.51524 0.0323995
84 1 C 0.014 -3.75079 -0.820142 -0.154923
88 1 C 0.014 -5.01456 -1.51984 -0.0855013
89 1 C 0.014 -6.23892 -0.749508 -0.160558
61 4 C 0.2 -0.0813936 -1.54522 -0.15909
63 1 C 0.014 -0.106905 -2.9938 -0.142239
67 4 C 0.2 -0.102788 -5.92691 -0.186382
64 4 C 0.2 -1.25214 -3.72148 0.35418
69 1 C 0.014 -2.51442 -5.883 0.588918
85 4 C 0.2 -3.75084 -5.12268 0.416855
86 1 C 0.014 -3.74856 -3.6923 0.219984
87 1 C 0.014 -5.00205 -2.94884 0.14459
153 2 O -0.4 2.93759 -0.962025 -1.37778
161 2 O -0.4 0.476772 -1.20646 -1.36294
166 2 O -0.4 5.20991 -1.58721 -1.74098
167 3 H 0.2 4.74188 -0.842642 -2.1365
169 2 O -0.4 3.91762 -4.85043 -1.96325
170 3 H 0.2 3.34201 -5.36754 -2.53914
173 2 O -0.4 1.24942 -5.01952 -2.00095
174 3 H 0.2 0.559668 -5.60257 -2.34636
41 4 C 0.2 1.15803 -0.785616 -0.179991
42 4 C 0.2 3.66538 -0.726929 -0.184827
43 4 C 0.2 2.41767 -1.49817 -0.184618
44 4 C 0.2 2.37494 -2.9786 -0.247107
46 4 C 0.2 4.97391 -1.44568 -0.310069
49 4 C 0.2 3.72156 -5.07426 -0.54391
62 1 C 0.014 1.13096 -3.69898 -0.345439
65 4 C 0.2 2.43568 -5.84948 -0.470297
66 4 C 0.2 1.13144 -5.15019 -0.563693
45 4 C 0.2 6.19222 -0.662673 0.0124238
48 4 C 0.2 3.64467 -3.66991 -0.180747
55 1 C 0.014 5.00214 -5.75842 -0.381634
47 4 C 0.2 4.9447 -2.90467 -0.0226126
53 1 C 0.014 6.25065 -3.57745 -0.180545
54 1 C 0.014 6.27074 -5.03759 -0.302168
129 3 H 0.2 10.3978 -0.62627 1.24312
50 4 C 0.2 8.57078 -0.513095 0.630451
51 1 C 0.014 7.452 -1.31504 0.184241
52 1 C 0.014 7.46963 -2.74021 0.0120707
57 2 O -0.4 9.74052 -1.27343 0.959885
58 3 H 0.2 8.7438 -3.33071 0.0414812
59 4 C 0.2 7.54521 -5.71982 -0.303149
131 2 O -0.4 8.84131 -5.06806 -0.147321
132 3 H 0.2 9.50264 -5.76113 -0.0611118
147 2 O -0.4 -10.9182 0.977716 0.728906
148 3 H 0.2 -11.4387 1.55389 1.3079
111 1 C 0.014 -7.34304 1.3958 -0.0254764
112 1 C 0.014 -7.28895 2.75921 -0.168278
110 1 C 0.014 -8.5964 0.779849 0.0432443
117 4 C 0.2 -9.58619 1.41822 0.824551
118 3 H 0.2 -8.55311 3.37179 0.0239956
146 2 O -0.4 -9.31457 2.5367 1.61219
119 3 H 0.2 -7.48328 5.47502 -0.320351
156 2 O -0.4 -0.481099 1.16265 -1.35909
101 4 C 0.2 -1.31338 0.639845 -0.312363
102 1 C 0.014 -3.71786 0.579586 -0.494255
103 1 C 0.014 -2.52593 1.33814 -0.432061
104 1 C 0.014 -2.55875 2.79939 -0.338101
105 1 C 0.014 -6.16554 0.677472 -0.172158
106 1 C 0.014 -4.93295 1.32684 -0.450664
107 1 C 0.014 -4.92374 2.77607 -0.535848
108 1 C 0.014 -3.75572 3.53563 -0.48495
113 1 C 0.014 -6.13875 3.47688 -0.424052
1 4 C 0.2 -0.125858 1.38481 -0.026267
5 1 C 0.014 -2.62161 5.69176 0.00250017
109 1 C 0.014 -3.80335 4.96772 -0.293435
114 1 C 0.014 -6.21238 4.88966 -0.347738
115 1 C 0.014 -5.02951 5.66928 -0.243278
149 2 O -0.4 2.29576 2.12614 -1.30702
152 2 O -0.4 5.05422 2.01844 -1.47686
159 2 O -0.4 0.237807 5.26664 -1.16486
28 4 C 0.2 4.88479 1.42773 -0.207243
29 4 C 0.2 6.16764 0.797809 0.0674572
35 1 C 0.014 7.40531 1.58932 0.185912
36 1 C 0.014 8.62066 0.947067 0.65877
40 4 C 0.2 9.74423 1.7007 1.21484
127 2 O -0.4 10.6466 1.08219 2.13609
128 3 H 0.2 11.0423 1.85369 2.55463
10 1 C 0.014 -3.86629 7.76476 0.345481
11 1 C 0.014 -2.61806 7.07898 0.313513
12 1 C 0.014 -1.35417 7.66243 0.695942
18 3 H 0.2 -1.30802 9.02627 1.02521
116 1 C 0.014 -5.02775 7.05355 0.00053906
17 3 H 0.2 -3.96286 9.14799 0.564644
120 3 H 0.2 -6.23556 7.74946 -0.0923811
162 2 O -0.4 2.23854 6.7373 -1.29355
121 3 H 0.2 1.97614 9.35252 1.25046
19 2 O -0.4 1.11809 8.91956 1.34089
137 2 O -0.4 -5.1147 -9.64955 2.54411
139 3 H 0.2 -3.04138 -10.4034 3.28777
74 4 C 0.2 -1.24854 -7.9971 0.509874
75 1 C 0.014 -2.45587 -7.30919 0.951017
76 1 C 0.014 -3.65991 -7.88056 1.50872
79 2 O -0.4 -1.37916 -9.40433 0.592202
80 4 C 0.2 -3.83864 -9.09897 2.2003
90 1 C 0.014 -4.85091 -7.15309 1.26493
97 3 H 0.2 -6.01843 -7.64789 1.83431
136 3 H 0.2 -0.708732 -9.88036 0.0891783
138 2 O -0.4 -2.76625 -9.54077 2.97259
73 4 C 0.2 -0.100007 -7.37245 -0.102352
134 2 O -0.4 1.59018 -8.97905 -2.63778
135 3 H 0.2 1.9862 -9.79028 -2.96493
72 1 C 0.014 1.08597 -8.05737 -0.571975
78 4 C 0.2 0.966279 -9.24495 -1.38145
133 2 O -0.4 1.75513 -10.2944 -0.864927
77 3 H 0.2 3.57769 -9.25808 -1.03235
145 3 H 0.2 -8.10049 -0.858173 -3.57833
100 4 C 0.2 -8.97414 -0.514618 -1.87782
141 2 O -0.4 -9.07153 -3.62045 -1.20427
94 1 C 0.014 -7.5208 -2.88192 0.199165
98 3 H 0.2 -7.38308 -5.5218 1.27292
99 4 C 0.2 -8.7297 -3.55288 0.125754
140 2 O -0.4 -8.95715 -4.8266 0.744153
142 3 H 0.2 -9.84592 -4.1783 -1.12792
91 1 C 0.014 -4.94613 -5.79427 0.794113
92 1 C 0.014 -6.17142 -4.98059 0.885444
93 1 C 0.014 -6.26718 -3.60333 0.418683
175 2 O -0.4 -0.920385 -3.46852 1.75305
176 3 H 0.2 -0.986813 -4.25043 2.30863
164 2 O -0.4 5.07672 -2.84625 1.41151
165 3 H 0.2 4.57504 -3.55248 1.83698
171 2 O -0.4 2.43654 -6.62722 0.707182
172 2 O -0.4 2.73213 -3.58011 0.989881
143 2 O -0.4 -8.44795 0.650557 -2.56614
6 1 C 0.014 -1.40666 4.96104 0.165179
7 4 C 0.2 -0.157167 5.66585 0.130654
2 4 C 0.2 -1.39587 3.52774 0.030809
160 2 O -0.4 -1.0393 2.982 1.25754
3 4 C 0.2 -0.134772 2.82731 0.150212
27 4 C 0.2 4.87908 2.8685 -0.33652
21 4 C 0.2 1.10684 0.661877 0.0844917
23 4 C 0.2 2.33998 1.41511 -0.0905932
8 4 C 0.2 1.10564 4.9927 -0.0605306
9 4 C 0.2 2.32522 5.77304 -0.218301
25 4 C 0.2 3.59187 5.05745 -0.2938
31 1 C 0.014 4.82973 5.78173 -0.613803
32 1 C 0.014 6.05272 5.03157 -0.74024
33 1 C 0.014 6.08298 3.63806 -0.439472
4 4 C 0.2 1.13757 3.57236 0.243905
22 4 C 0.2 2.361 2.8707 -0.104775
24 4 C 0.2 3.614 0.727097 0.0220157
26 4 C 0.2 3.62234 3.59159 -0.187545
150 2 O -0.4 3.56396 0.697126 1.46142
151 3 H 0.2 4.29969 0.272402 1.91482
154 2 O -0.4 1.06253 0.574832 1.51174
155 3 H 0.2 1.83513 0.102374 1.83472
157 2 O -0.4 1.42732 3.70191 1.66299
158 3 H 0.2 1.03755 2.93131 2.09172
163 2 O -0.4 3.88549 4.43441 0.936372
168 2 O -0.4 5.96306 -0.0209587 1.21976
34 1 C 0.014 7.32631 2.9792 -0.226085
39 3 H 0.2 8.49744 3.74971 -0.142052
38 3 H 0.2 7.23139 5.78217 -0.908895
126 2 O -0.4 9.60954 3.08575 1.51423
124 2 O -0.4 5.87802 9.40214 -1.29736
125 3 H 0.2 6.76147 9.65367 -1.58
13 1 C 0.014 -0.0923819 7.03886 0.522115
14 4 C 0.2 1.17205 7.70419 0.621266
15 4 C 0.2 2.39349 7.21364 0.0310209
16 4 C 0.2 3.6651 7.87689 -0.0374931
30 1 C 0.014 4.80927 7.24415 -0.689653
37 4 C 0.2 5.90023 7.98375 -1.24055
122 3 H 0.2 4.75921 9.36104 0.546168
20 2 O -0.4 3.81547 9.1724 0.59815
123 2 O -0.4 7.22122 7.50274 -1.41398
ITEM: TIMESTEP
4000
ITEM: NUMBER OF ATOMS
179
ITEM: BOX BOUNDS pp pp pp
-2.6348099999999999e+01 2.6348099999999999e+01
-2.5981400000000001e+01 2.4881399999999999e+01
-2.0000000000000000e+01 2.0000000000000000e+01
ITEM: ATOMS id type element q x y z
73 4 C 0.2 0.00902942 -7.18514 -0.358663
71 4 C 0.2 2.45858 -7.15151 0.266555
56 1 C 0.014 4.89319 -7.02348 0.986032
70 1 C 0.014 3.73553 -7.74388 0.63597
60 3 H 0.2 6.00299 -7.71876 1.4853
134 2 O -0.4 0.848358 -9.53722 -1.79179
135 3 H 0.2 1.43117 -10.1882 -2.19851
72 1 C 0.014 1.29549 -7.8787 -0.205065
78 4 C 0.2 1.52941 -9.21599 -0.633879
133 2 O -0.4 2.783 -9.90374 -0.721153
77 3 H 0.2 3.86986 -9.13216 0.436094
144 2 O -0.4 -10.1052 -2.73205 -1.49415
96 1 C 0.014 -8.72158 -0.798491 -0.480808
95 1 C 0.014 -7.43618 -1.50958 -0.501059
145 3 H 0.2 -11.0239 -2.91155 -1.26963
141 2 O -0.4 -8.59745 -4.92798 0.350418
142 3 H 0.2 -8.68446 -5.08456 1.29658
177 2 O -0.4 0.0467841 -6.54258 -1.67226
178 2 O -0.4 -3.14065 -4.78393 -2.40661
179 3 H 0.2 -3.03782 -3.87085 -2.68437
81 1 C 0.014 -1.30202 -0.744072 0.277652
84 1 C 0.014 -3.73155 -0.760348 -0.0474441
88 1 C 0.014 -4.97421 -1.47094 -0.277421
89 1 C 0.014 -6.22665 -0.792598 -0.143369
61 4 C 0.2 -0.0770229 -1.44911 0.222564
63 1 C 0.014 -0.0351989 -2.88488 0.0434107