# GO_structure
1588 atoms 
2170 bonds 
4656 angles 
9963 dihedrals 
488 impropers 

354 atom types 
16 bond types 
37 angle types 
106 dihedral types 
19 improper types 

0.0	150.0	 xlo xhi 
0.0	150.0	 ylo yhi 
0.0	3.4827	 zlo zhi 


 Masses 
 
1	12.011
2	1.008
3	12.011
4	15.999
5	1.008
6	15.999
11	12.011
7	15.999
8	12.011
9	15.999
10	15.999
12	12.011
13	15.999
349	22.99
354	40.08

 Pair Coeffs 
 
1	0.07	3.55
2	0.03	2.42
3	0.066	3.5
4	0.17	3.12
5	0.0	0.0
6	0.14	2.9
11	0.07	3.55
7	0.17	3.07
8	0.105	3.75
9	0.21	2.96
10	0.17	3.0
12	0.105	3.75
13	0.21	2.96
349	0.0005	4.07
354	0.449657	2.412031

 Bond Coeffs 
 
1	469.0	1.4
2	469.0	1.4
3	317.0	1.51
4	317.0	1.51
5	469.0	1.4
6	268.0	1.529
7	367.0	1.08
8	400.0	1.49
9	450.0	1.364
10	570.0	1.229
11	450.0	1.364
12	553.0	0.945
13	553.0	0.945
14	320.0	1.41
15	553.0	0.945
16	320.0	1.41

 Angle Coeffs 
 
1	35.0	120.0
2	63.0	120.0
3	35.0	120.0
4	63.0	120.0
5	85.0	120.0
6	63.0	120.0
7	63.0	120.0
8	70.0	120.0
9	70.0	120.0
10	70.0	120.0
11	35.0	117.0
12	63.0	114.0
13	50.0	109.5
14	40.0	109.5
15	50.0	109.5
16	70.0	130.0
17	63.0	114.0
18	50.0	109.5
19	40.0	109.5
20	50.0	109.5
21	50.0	109.5
22	70.0	120.0
23	70.0	119.7
24	85.0	120.0
25	63.0	120.0
26	70.0	120.0
27	58.35	112.7
28	70.0	120.0
29	70.0	123.0
30	50.0	109.5
31	80.0	120.4
32	70.0	120.0
33	80.0	121.0
34	35.0	113.0
35	35.0	113.0
36	55.0	108.5
37	60.0	109.5

 Dihedral Coeffs 
 
1	0.0	7.25	0.0	0.0
2	0.0	7.25	0.0	0.0
3	0.0	7.25	0.0	0.0
4	0.0	7.25	0.0	0.0
5	0.0	7.25	0.0	0.0
6	0.0	7.25	0.0	0.0
7	0.0	7.25	0.0	0.0
8	0.0	7.25	0.0	0.0
9	0.0	7.25	0.0	0.0
10	0.0	7.25	0.0	0.0
11	0.0	7.25	0.0	0.0
12	0.0	7.25	0.0	0.0
13	0.0	7.25	0.0	0.0
14	0.0	7.25	0.0	0.0
15	0.0	7.25	0.0	0.0
16	0.0	7.25	0.0	0.0
17	0.0	7.25	0.0	0.0
18	0.0	0.0	0.0	0.0
19	0.0	0.0	0.0	0.0
20	0.0	0.0	0.0	0.0
21	0.0	-8.0	0.0	0.0
22	0.0	0.0	0.468	0.0
23	0.0	0.0	0.468	0.0
24	2.817	-0.169	0.543	0.0
25	1.711	-0.5	0.663	0.0
26	0.0	-8.0	0.0	0.0
27	0.0	-8.0	0.0	0.0
28	0.0	0.0	0.468	0.0
29	0.0	0.0	0.0	0.0
30	0.0	0.0	0.0	0.0
31	0.0	0.0	0.0	0.0
32	0.5	0.0	0.0	0.0
33	0.0	0.0	0.0	0.0
34	0.5	0.0	0.0	0.0
35	0.0	0.0	0.0	0.0
36	0.5	0.0	0.0	0.0
37	0.0	7.25	0.0	0.0
38	0.0	7.25	0.0	0.0
39	0.0	7.25	0.0	0.0
40	0.0	7.25	0.0	0.0
41	0.0	7.25	0.0	0.0
42	0.0	7.25	0.0	0.0
43	0.0	7.25	0.0	0.0
44	0.0	7.25	0.0	0.0
45	1.711	-0.5	0.663	0.0
46	-4.344	-1.714	0.0	0.0
47	1.711	-0.5	0.663	0.0
48	-4.344	-1.714	0.0	0.0
49	1.3	-0.05	0.2	0.0
50	1.3	-0.05	0.2	0.0
51	-0.55	0.0	0.0	0.0
52	4.319	0.0	0.0	0.0
53	0.0	0.0	0.366	0.0
54	-1.552	0.0	0.0	0.0
55	9.508	0.0	0.0	0.0
56	0.0	0.0	0.0	0.0
57	0.0	0.0	0.0	0.0
58	0.0	0.0	0.0	0.0
59	0.0	0.0	0.0	0.0
60	0.0	0.0	0.0	0.0
61	1.711	-0.5	0.663	0.0
62	-4.344	-1.714	0.0	0.0
63	0.0	7.25	0.0	0.0
64	0.0	0.0	0.0	0.0
65	0.0	0.0	0.468	0.0
66	0.0	-8.0	0.0	0.0
67	0.0	0.0	0.468	0.0
68	-4.344	-1.714	0.0	0.0
69	0.0	0.0	0.0	0.0
70	0.5	0.0	0.0	0.0
71	0.0	-8.0	0.0	0.0
72	0.0	0.0	0.0	0.0
73	0.0	0.0	0.366	0.0
74	0.0	0.0	0.0	0.0
75	0.0	7.25	0.0	0.0
76	0.0	7.25	0.0	0.0
77	0.0	7.25	0.0	0.0
78	0.0	7.25	0.0	0.0
79	0.0	7.25	0.0	0.0
80	0.0	0.0	0.0	0.0
81	0.0	7.25	0.0	0.0
82	0.0	7.25	0.0	0.0
83	0.0	7.25	0.0	0.0
84	0.0	7.25	0.0	0.0
85	0.0	7.25	0.0	0.0
86	0.0	7.25	0.0	0.0
87	0.0	7.25	0.0	0.0
88	-4.344	-1.714	0.0	0.0
89	0.0	7.25	0.0	0.0
90	0.0	2.1	0.0	0.0
91	0.0	2.1	0.0	0.0
92	0.0	1.682	0.0	0.0
93	0.9	0.23	-0.505	0.0
94	0.9	0.23	-0.505	0.0
95	0.0	2.1	0.0	0.0
96	0.0	2.1	0.0	0.0
97	0.0	1.682	0.0	0.0
98	0.0	1.682	0.0	0.0
99	4.0	5.0	0.0	0.0
100	0.0	5.0	0.0	0.0
101	-0.356	-0.174	0.492	0.0
102	-0.521	-2.018	1.996	0.0
103	0.65	-0.25	0.67	0.0
104	-0.9	0.0	0.0	0.0
105	-0.521	-2.018	1.996	0.0
106	-0.9	0.0	0.0	0.0

 Improper Coeffs 
 
1	5.0	180.0
2	5.0	180.0
3	5.0	180.0
4	5.0	180.0
5	5.0	180.0
6	5.0	180.0
7	5.0	180.0
8	5.0	180.0
9	5.0	180.0
10	5.0	180.0
11	5.0	180.0
12	5.0	180.0
13	5.0	180.0
14	5.0	180.0
15	5.0	180.0
16	5.0	180.0
17	5.0	180.0
18	5.0	180.0
19	21.0	180.0

 Atoms 
 
1	 1	 1	 -0.115	 0.0	 0.0	 0.0
 2	 1	 1	 -0.115	 1.225252741274224	 -0.7074	 0.0
 3	 1	 1	 0.0	 2.450505482548448	 0.0	 0.0
 4	 1	 11	 -0.115	 3.675758223822672	 -0.7074	 0.0
 5	 1	 1	 0.0	 4.901010965096896	 0.0	 0.0
 6	 1	 11	 0.15	 6.12626370637112	 -0.7074	 0.0
 7	 1	 1	 0.0	 7.351516447645344	 0.0	 0.0
 8	 1	 1	 -0.115	 8.576769188919569	 -0.7074	 0.0
 9	 1	 1	 0.0	 9.802021930193792	 0.0	 0.0
 10	 1	 1	 -0.115	 11.027274671468016	 -0.7074	 0.0
 11	 1	 1	 0.0	 12.25252741274224	 0.0	 0.0
 12	 1	 1	 -0.115	 13.477780154016463	 -0.7074	 0.0
 13	 1	 1	 0.0	 14.703032895290686	 0.0	 0.0
 14	 1	 11	 -0.115	 15.928285636564912	 -0.7074	 0.0
 15	 1	 1	 0.0	 17.153538377839137	 0.0	 0.0
 16	 1	 1	 -0.115	 18.378791119113362	 -0.7074	 0.0
 17	 1	 3	 0.265	 19.604043860387584	 0.0	 0.0
 18	 1	 1	 -0.115	 20.82929660166181	 -0.7074	 0.0
 19	 1	 3	 0.265	 22.05454934293603	 0.0	 0.0
 20	 1	 1	 -0.115	 23.279802084210257	 -0.7074	 0.0
 21	 1	 1	 0.0	 24.50505482548448	 0.0	 0.0
 22	 1	 1	 -0.115	 25.730307566758704	 -0.7074	 0.0
 23	 1	 1	 0.0	 26.955560308032926	 0.0	 0.0
 24	 1	 1	 -0.115	 28.180813049307154	 -0.7074	 0.0
 25	 1	 3	 0.2	 29.406065790581376	 0.0	 0.0
 26	 1	 11	 -0.115	 30.6313185318556	 -0.7074	 0.0
 27	 1	 1	 0.0	 31.856571273129823	 0.0	 0.0
 28	 1	 11	 -0.115	 33.08182401440405	 -0.7074	 0.0
 29	 1	 1	 0.0	 34.307076755678274	 0.0	 0.0
 30	 1	 11	 0.15	 35.5323294969525	 -0.7074	 0.0
 31	 1	 1	 0.0	 36.757582238226725	 0.0	 0.0
 32	 1	 1	 -0.115	 37.98283497950094	 -0.7074	 0.0
 33	 1	 1	 0.0	 39.20808772077517	 0.0	 0.0
 34	 1	 11	 0.15	 40.433340462049394	 -0.7074	 0.0
 35	 1	 1	 0.0	 41.65859320332362	 0.0	 0.0
 36	 1	 11	 0.15	 42.883845944597844	 -0.7074	 0.0
 37	 1	 1	 0.0	 44.10909868587207	 0.0	 0.0
 38	 1	 11	 -0.115	 45.33435142714629	 -0.7074	 0.0
 39	 1	 11	 0.15	 46.55960416842051	 0.0	 0.0
 40	 1	 11	 -0.115	 0.0	 1.4148	 0.0
 41	 1	 1	 0.0	 1.225252741274224	 2.1222000000000003	 0.0
 42	 1	 1	 0.0	 2.450505482548448	 1.4148	 0.0
 43	 1	 1	 0.0	 3.675758223822672	 2.1222000000000003	 0.0
 44	 1	 1	 0.0	 4.901010965096896	 1.4148	 0.0
 45	 1	 1	 0.0	 6.12626370637112	 2.1222000000000003	 0.0
 46	 1	 1	 0.0	 7.351516447645344	 1.4148	 0.0
 47	 1	 1	 0.0	 8.576769188919569	 2.1222000000000003	 0.0
 48	 1	 1	 0.0	 9.802021930193792	 1.4148	 0.0
 49	 1	 1	 0.0	 11.027274671468016	 2.1222000000000003	 0.0
 50	 1	 3	 0.2	 12.25252741274224	 1.4148	 0.0
 51	 1	 3	 0.2	 13.477780154016463	 2.1222000000000003	 0.0
 52	 1	 3	 0.2	 14.703032895290686	 1.4148	 0.0
 53	 1	 3	 0.2	 15.928285636564912	 2.1222000000000003	 0.0
 54	 1	 3	 0.265	 17.153538377839137	 1.4148	 0.0
 55	 1	 3	 0.2	 18.378791119113362	 2.1222000000000003	 0.0
 56	 1	 3	 0.2	 19.604043860387584	 1.4148	 0.0
 57	 1	 3	 0.265	 20.82929660166181	 2.1222000000000003	 0.0
 58	 1	 1	 0.0	 22.05454934293603	 1.4148	 0.0
 59	 1	 3	 0.265	 23.279802084210257	 2.1222000000000003	 0.0
 60	 1	 3	 0.265	 24.50505482548448	 1.4148	 0.0
 61	 1	 3	 0.265	 25.730307566758704	 2.1222000000000003	 0.0
 62	 1	 3	 0.265	 26.955560308032926	 1.4148	 0.0
 63	 1	 3	 0.2	 28.180813049307154	 2.1222000000000003	 0.0
 64	 1	 3	 0.2	 29.406065790581376	 1.4148	 0.0
 65	 1	 3	 0.2	 30.6313185318556	 2.1222000000000003	 0.0
 66	 1	 3	 0.2	 31.856571273129823	 1.4148	 0.0
 67	 1	 1	 0.0	 33.08182401440405	 2.1222000000000003	 0.0
 68	 1	 1	 0.0	 34.307076755678274	 1.4148	 0.0
 69	 1	 1	 0.0	 35.5323294969525	 2.1222000000000003	 0.0
 70	 1	 1	 0.0	 36.757582238226725	 1.4148	 0.0
 71	 1	 1	 0.0	 37.98283497950094	 2.1222000000000003	 0.0
 72	 1	 1	 0.0	 39.20808772077517	 1.4148	 0.0
 73	 1	 1	 0.0	 40.433340462049394	 2.1222000000000003	 0.0
 74	 1	 1	 0.0	 41.65859320332362	 1.4148	 0.0
 75	 1	 1	 0.0	 42.883845944597844	 2.1222000000000003	 0.0
 76	 1	 1	 0.0	 44.10909868587207	 1.4148	 0.0
 77	 1	 1	 0.0	 45.33435142714629	 2.1222000000000003	 0.0
 78	 1	 1	 -0.115	 46.55960416842051	 1.4148	 0.0
 79	 1	 1	 -0.115	 0.0	 4.244400000000001	 0.0
 80	 1	 1	 0.0	 1.225252741274224	 3.537000000000001	 0.0
 81	 1	 1	 0.0	 2.450505482548448	 4.244400000000001	 0.0
 82	 1	 1	 0.0	 3.675758223822672	 3.537000000000001	 0.0
 83	 1	 1	 0.0	 4.901010965096896	 4.244400000000001	 0.0
 84	 1	 1	 0.0	 6.12626370637112	 3.537000000000001	 0.0
 85	 1	 1	 0.0	 7.351516447645344	 4.244400000000001	 0.0
 86	 1	 1	 0.0	 8.576769188919569	 3.537000000000001	 0.0
 87	 1	 3	 0.2	 9.802021930193792	 4.244400000000001	 0.0
 88	 1	 3	 0.2	 11.027274671468016	 3.537000000000001	 0.0
 89	 1	 3	 0.2	 12.25252741274224	 4.244400000000001	 0.0
 90	 1	 1	 0.0	 13.477780154016463	 3.537000000000001	 0.0
 91	 1	 1	 0.0	 14.703032895290686	 4.244400000000001	 0.0
 92	 1	 1	 0.0	 15.928285636564912	 3.537000000000001	 0.0
 93	 1	 1	 0.0	 17.153538377839137	 4.244400000000001	 0.0
 94	 1	 3	 0.2	 18.378791119113362	 3.537000000000001	 0.0
 95	 1	 3	 0.2	 19.604043860387584	 4.244400000000001	 0.0
 96	 1	 3	 0.2	 20.82929660166181	 3.537000000000001	 0.0
 97	 1	 3	 0.2	 22.05454934293603	 4.244400000000001	 0.0
 98	 1	 3	 0.265	 23.279802084210257	 3.537000000000001	 0.0
 99	 1	 3	 0.2	 24.50505482548448	 4.244400000000001	 0.0
 100	 1	 3	 0.2	 25.730307566758704	 3.537000000000001	 0.0
 101	 1	 1	 0.0	 26.955560308032926	 4.244400000000001	 0.0
 102	 1	 3	 0.2	 28.180813049307154	 3.537000000000001	 0.0
 103	 1	 1	 0.0	 29.406065790581376	 4.244400000000001	 0.0
 104	 1	 1	 0.0	 30.6313185318556	 3.537000000000001	 0.0
 105	 1	 1	 0.0	 31.856571273129823	 4.244400000000001	 0.0
 106	 1	 1	 0.0	 33.08182401440405	 3.537000000000001	 0.0
 107	 1	 1	 0.0	 34.307076755678274	 4.244400000000001	 0.0
 108	 1	 1	 0.0	 35.5323294969525	 3.537000000000001	 0.0
 109	 1	 1	 0.0	 36.757582238226725	 4.244400000000001	 0.0
 110	 1	 1	 0.0	 37.98283497950094	 3.537000000000001	 0.0
 111	 1	 1	 0.0	 39.20808772077517	 4.244400000000001	 0.0
 112	 1	 1	 0.0	 40.433340462049394	 3.537000000000001	 0.0
 113	 1	 1	 0.0	 41.65859320332362	 4.244400000000001	 0.0
 114	 1	 1	 0.0	 42.883845944597844	 3.537000000000001	 0.0
 115	 1	 1	 0.0	 44.10909868587207	 4.244400000000001	 0.0
 116	 1	 1	 0.0	 45.33435142714629	 3.537000000000001	 0.0
 117	 1	 1	 -0.115	 46.55960416842051	 4.244400000000001	 0.0
 118	 1	 1	 -0.115	 0.0	 5.6592	 0.0
 119	 1	 1	 0.0	 1.225252741274224	 6.3666	 0.0
 120	 1	 1	 0.0	 2.450505482548448	 5.6592	 0.0
 121	 1	 1	 0.0	 3.675758223822672	 6.3666	 0.0
 122	 1	 1	 0.0	 4.901010965096896	 5.6592	 0.0
 123	 1	 1	 0.0	 6.12626370637112	 6.3666	 0.0
 124	 1	 1	 0.0	 7.351516447645344	 5.6592	 0.0
 125	 1	 3	 0.2	 8.576769188919569	 6.3666	 0.0
 126	 1	 3	 0.2	 9.802021930193792	 5.6592	 0.0
 127	 1	 3	 0.265	 11.027274671468016	 6.3666	 0.0
 128	 1	 3	 0.2	 12.25252741274224	 5.6592	 0.0
 129	 1	 3	 0.2	 13.477780154016463	 6.3666	 0.0
 130	 1	 1	 0.0	 14.703032895290686	 5.6592	 0.0
 131	 1	 1	 0.0	 15.928285636564912	 6.3666	 0.0
 132	 1	 1	 0.0	 17.153538377839137	 5.6592	 0.0
 133	 1	 1	 0.0	 18.378791119113362	 6.3666	 0.0
 134	 1	 1	 0.0	 19.604043860387584	 5.6592	 0.0
 135	 1	 1	 0.0	 20.82929660166181	 6.3666	 0.0
 136	 1	 3	 0.2	 22.05454934293603	 5.6592	 0.0
 137	 1	 3	 0.2	 23.279802084210257	 6.3666	 0.0
 138	 1	 3	 0.265	 24.50505482548448	 5.6592	 0.0
 139	 1	 3	 0.2	 25.730307566758704	 6.3666	 0.0
 140	 1	 3	 0.2	 26.955560308032926	 5.6592	 0.0
 141	 1	 3	 0.2	 28.180813049307154	 6.3666	 0.0
 142	 1	 1	 0.0	 29.406065790581376	 5.6592	 0.0
 143	 1	 1	 0.0	 30.6313185318556	 6.3666	 0.0
 144	 1	 1	 0.0	 31.856571273129823	 5.6592	 0.0
 145	 1	 1	 0.0	 33.08182401440405	 6.3666	 0.0
 146	 1	 1	 0.0	 34.307076755678274	 5.6592	 0.0
 147	 1	 1	 0.0	 35.5323294969525	 6.3666	 0.0
 148	 1	 1	 0.0	 36.757582238226725	 5.6592	 0.0
 149	 1	 1	 0.0	 37.98283497950094	 6.3666	 0.0
 150	 1	 1	 0.0	 39.20808772077517	 5.6592	 0.0
 151	 1	 1	 0.0	 40.433340462049394	 6.3666	 0.0
 152	 1	 1	 0.0	 41.65859320332362	 5.6592	 0.0
 153	 1	 1	 0.0	 42.883845944597844	 6.3666	 0.0
 154	 1	 1	 0.0	 44.10909868587207	 5.6592	 0.0
 155	 1	 1	 0.0	 45.33435142714629	 6.3666	 0.0
 156	 1	 1	 -0.115	 46.55960416842051	 5.6592	 0.0
 157	 1	 1	 -0.115	 0.0	 8.488800000000001	 0.0
 158	 1	 1	 0.0	 1.225252741274224	 7.781400000000001	 0.0
 159	 1	 3	 0.2	 2.450505482548448	 8.488800000000001	 0.0
 160	 1	 3	 0.2	 3.675758223822672	 7.781400000000001	 0.0
 161	 1	 1	 0.0	 4.901010965096896	 8.488800000000001	 0.0
 162	 1	 1	 0.0	 6.12626370637112	 7.781400000000001	 0.0
 163	 1	 1	 0.0	 7.351516447645344	 8.488800000000001	 0.0
 164	 1	 3	 0.2	 8.576769188919569	 7.781400000000001	 0.0
 165	 1	 3	 0.2	 9.802021930193792	 8.488800000000001	 0.0
 166	 1	 3	 0.2	 11.027274671468016	 7.781400000000001	 0.0
 167	 1	 3	 0.265	 12.25252741274224	 8.488800000000001	 0.0
 168	 1	 3	 0.2	 13.477780154016463	 7.781400000000001	 0.0
 169	 1	 3	 0.2	 14.703032895290686	 8.488800000000001	 0.0
 170	 1	 1	 0.0	 15.928285636564912	 7.781400000000001	 0.0
 171	 1	 1	 0.0	 17.153538377839137	 8.488800000000001	 0.0
 172	 1	 1	 0.0	 18.378791119113362	 7.781400000000001	 0.0
 173	 1	 1	 0.0	 19.604043860387584	 8.488800000000001	 0.0
 174	 1	 1	 0.0	 20.82929660166181	 7.781400000000001	 0.0
 175	 1	 1	 0.0	 22.05454934293603	 8.488800000000001	 0.0
 176	 1	 1	 0.0	 23.279802084210257	 7.781400000000001	 0.0
 177	 1	 3	 0.2	 24.50505482548448	 8.488800000000001	 0.0
 178	 1	 3	 0.265	 25.730307566758704	 7.781400000000001	 0.0
 179	 1	 3	 0.265	 26.955560308032926	 8.488800000000001	 0.0
 180	 1	 3	 0.2	 28.180813049307154	 7.781400000000001	 0.0
 181	 1	 1	 0.0	 29.406065790581376	 8.488800000000001	 0.0
 182	 1	 1	 0.0	 30.6313185318556	 7.781400000000001	 0.0
 183	 1	 3	 0.2	 31.856571273129823	 8.488800000000001	 0.0
 184	 1	 3	 0.2	 33.08182401440405	 7.781400000000001	 0.0
 185	 1	 1	 0.0	 34.307076755678274	 8.488800000000001	 0.0
 186	 1	 1	 0.0	 35.5323294969525	 7.781400000000001	 0.0
 187	 1	 1	 0.0	 36.757582238226725	 8.488800000000001	 0.0
 188	 1	 1	 0.0	 37.98283497950094	 7.781400000000001	 0.0
 189	 1	 1	 0.0	 39.20808772077517	 8.488800000000001	 0.0
 190	 1	 1	 0.0	 40.433340462049394	 7.781400000000001	 0.0
 191	 1	 1	 0.0	 41.65859320332362	 8.488800000000001	 0.0
 192	 1	 1	 0.0	 42.883845944597844	 7.781400000000001	 0.0
 193	 1	 1	 0.0	 44.10909868587207	 8.488800000000001	 0.0
 194	 1	 1	 0.0	 45.33435142714629	 7.781400000000001	 0.0
 195	 1	 11	 -0.115	 46.55960416842051	 8.488800000000001	 0.0
 196	 1	 11	 -0.115	 0.0	 9.9036	 0.0
 197	 1	 1	 0.0	 1.225252741274224	 10.611	 0.0
 198	 1	 3	 0.265	 2.450505482548448	 9.9036	 0.0
 199	 1	 3	 0.2	 3.675758223822672	 10.611	 0.0
 200	 1	 3	 0.2	 4.901010965096896	 9.9036	 0.0
 201	 1	 3	 0.2	 6.12626370637112	 10.611	 0.0
 202	 1	 3	 0.2	 7.351516447645344	 9.9036	 0.0
 203	 1	 3	 0.265	 8.576769188919569	 10.611	 0.0
 204	 1	 3	 0.2	 9.802021930193792	 9.9036	 0.0
 205	 1	 3	 0.2	 11.027274671468016	 10.611	 0.0
 206	 1	 3	 0.265	 12.25252741274224	 9.9036	 0.0
 207	 1	 3	 0.2	 13.477780154016463	 10.611	 0.0
 208	 1	 3	 0.265	 14.703032895290686	 9.9036	 0.0
 209	 1	 3	 0.2	 15.928285636564912	 10.611	 0.0
 210	 1	 3	 0.2	 17.153538377839137	 9.9036	 0.0
 211	 1	 3	 0.2	 18.378791119113362	 10.611	 0.0
 212	 1	 1	 0.0	 19.604043860387584	 9.9036	 0.0
 213	 1	 1	 0.0	 20.82929660166181	 10.611	 0.0
 214	 1	 3	 0.2	 22.05454934293603	 9.9036	 0.0
 215	 1	 3	 0.2	 23.279802084210257	 10.611	 0.0
 216	 1	 3	 0.2	 24.50505482548448	 9.9036	 0.0
 217	 1	 3	 0.265	 25.730307566758704	 10.611	 0.0
 218	 1	 1	 0.0	 26.955560308032926	 9.9036	 0.0
 219	 1	 3	 0.265	 28.180813049307154	 10.611	 0.0
 220	 1	 3	 0.2	 29.406065790581376	 9.9036	 0.0
 221	 1	 3	 0.2	 30.6313185318556	 10.611	 0.0
 222	 1	 3	 0.2	 31.856571273129823	 9.9036	 0.0
 223	 1	 3	 0.2	 33.08182401440405	 10.611	 0.0
 224	 1	 3	 0.2	 34.307076755678274	 9.9036	 0.0
 225	 1	 3	 0.2	 35.5323294969525	 10.611	 0.0
 226	 1	 1	 0.0	 36.757582238226725	 9.9036	 0.0
 227	 1	 1	 0.0	 37.98283497950094	 10.611	 0.0
 228	 1	 1	 0.0	 39.20808772077517	 9.9036	 0.0
 229	 1	 1	 0.0	 40.433340462049394	 10.611	 0.0
 230	 1	 1	 0.0	 41.65859320332362	 9.9036	 0.0
 231	 1	 1	 0.0	 42.883845944597844	 10.611	 0.0
 232	 1	 1	 0.0	 44.10909868587207	 9.9036	 0.0
 233	 1	 1	 0.0	 45.33435142714629	 10.611	 0.0
 234	 1	 11	 0.15	 46.55960416842051	 9.9036	 0.0
 235	 1	 11	 -0.115	 0.0	 12.733200000000002	 0.0
 236	 1	 3	 0.2	 1.225252741274224	 12.025800000000002	 0.0
 237	 1	 3	 0.2	 2.450505482548448	 12.733200000000002	 0.0
 238	 1	 3	 0.265	 3.675758223822672	 12.025800000000002	 0.0
 239	 1	 1	 0.0	 4.901010965096896	 12.733200000000002	 0.0
 240	 1	 3	 0.2	 6.12626370637112	 12.025800000000002	 0.0
 241	 1	 3	 0.2	 7.351516447645344	 12.733200000000002	 0.0
 242	 1	 3	 0.265	 8.576769188919569	 12.025800000000002	 0.0
 243	 1	 3	 0.265	 9.802021930193792	 12.733200000000002	 0.0
 244	 1	 3	 0.265	 11.027274671468016	 12.025800000000002	 0.0
 245	 1	 3	 0.265	 12.25252741274224	 12.733200000000002	 0.0
 246	 1	 3	 0.2	 13.477780154016463	 12.025800000000002	 0.0
 247	 1	 3	 0.2	 14.703032895290686	 12.733200000000002	 0.0
 248	 1	 3	 0.2	 15.928285636564912	 12.025800000000002	 0.0
 249	 1	 3	 0.2	 17.153538377839137	 12.733200000000002	 0.0
 250	 1	 3	 0.2	 18.378791119113362	 12.025800000000002	 0.0
 251	 1	 3	 0.265	 19.604043860387584	 12.733200000000002	 0.0
 252	 1	 3	 0.2	 20.82929660166181	 12.025800000000002	 0.0
 253	 1	 3	 0.2	 22.05454934293603	 12.733200000000002	 0.0
 254	 1	 3	 0.265	 23.279802084210257	 12.025800000000002	 0.0
 255	 1	 1	 0.0	 24.50505482548448	 12.733200000000002	 0.0
 256	 1	 3	 0.265	 25.730307566758704	 12.025800000000002	 0.0
 257	 1	 3	 0.265	 26.955560308032926	 12.733200000000002	 0.0
 258	 1	 1	 0.0	 28.180813049307154	 12.025800000000002	 0.0
 259	 1	 3	 0.265	 29.406065790581376	 12.733200000000002	 0.0
 260	 1	 3	 0.2	 30.6313185318556	 12.025800000000002	 0.0
 261	 1	 3	 0.2	 31.856571273129823	 12.733200000000002	 0.0
 262	 1	 3	 0.265	 33.08182401440405	 12.025800000000002	 0.0
 263	 1	 3	 0.265	 34.307076755678274	 12.733200000000002	 0.0
 264	 1	 3	 0.2	 35.5323294969525	 12.025800000000002	 0.0
 265	 1	 3	 0.2	 36.757582238226725	 12.733200000000002	 0.0
 266	 1	 1	 0.0	 37.98283497950094	 12.025800000000002	 0.0
 267	 1	 1	 0.0	 39.20808772077517	 12.733200000000002	 0.0
 268	 1	 1	 0.0	 40.433340462049394	 12.025800000000002	 0.0
 269	 1	 1	 0.0	 41.65859320332362	 12.733200000000002	 0.0
 270	 1	 1	 0.0	 42.883845944597844	 12.025800000000002	 0.0
 271	 1	 1	 0.0	 44.10909868587207	 12.733200000000002	 0.0
 272	 1	 1	 0.0	 45.33435142714629	 12.025800000000002	 0.0
 273	 1	 11	 0.15	 46.55960416842051	 12.733200000000002	 0.0
 274	 1	 11	 -0.115	 0.0	 14.148	 0.0
 275	 1	 1	 0.0	 1.225252741274224	 14.8554	 0.0
 276	 1	 3	 0.2	 2.450505482548448	 14.148	 0.0
 277	 1	 3	 0.2	 3.675758223822672	 14.8554	 0.0
 278	 1	 3	 0.265	 4.901010965096896	 14.148	 0.0
 279	 1	 1	 0.0	 6.12626370637112	 14.8554	 0.0
 280	 1	 3	 0.265	 7.351516447645344	 14.148	 0.0
 281	 1	 3	 0.2	 8.576769188919569	 14.8554	 0.0
 282	 1	 3	 0.2	 9.802021930193792	 14.148	 0.0
 283	 1	 3	 0.265	 11.027274671468016	 14.8554	 0.0
 284	 1	 3	 0.265	 12.25252741274224	 14.148	 0.0
 285	 1	 3	 0.2	 13.477780154016463	 14.8554	 0.0
 286	 1	 3	 0.2	 14.703032895290686	 14.148	 0.0
 287	 1	 3	 0.265	 15.928285636564912	 14.8554	 0.0
 288	 1	 3	 0.2	 17.153538377839137	 14.148	 0.0
 289	 1	 1	 0.0	 18.378791119113362	 14.8554	 0.0
 290	 1	 3	 0.265	 19.604043860387584	 14.148	 0.0
 291	 1	 3	 0.2	 20.82929660166181	 14.8554	 0.0
 292	 1	 3	 0.265	 22.05454934293603	 14.148	 0.0
 293	 1	 1	 0.0	 23.279802084210257	 14.8554	 0.0
 294	 1	 3	 0.2	 24.50505482548448	 14.148	 0.0
 295	 1	 3	 0.2	 25.730307566758704	 14.8554	 0.0
 296	 1	 1	 0.0	 26.955560308032926	 14.148	 0.0
 297	 1	 3	 0.265	 28.180813049307154	 14.8554	 0.0
 298	 1	 1	 0.0	 29.406065790581376	 14.148	 0.0
 299	 1	 3	 0.265	 30.6313185318556	 14.8554	 0.0
 300	 1	 1	 0.0	 31.856571273129823	 14.148	 0.0
 301	 1	 3	 0.265	 33.08182401440405	 14.8554	 0.0
 302	 1	 3	 0.265	 34.307076755678274	 14.148	 0.0
 303	 1	 3	 0.2	 35.5323294969525	 14.8554	 0.0
 304	 1	 3	 0.2	 36.757582238226725	 14.148	 0.0
 305	 1	 1	 0.0	 37.98283497950094	 14.8554	 0.0
 306	 1	 1	 0.0	 39.20808772077517	 14.148	 0.0
 307	 1	 1	 0.0	 40.433340462049394	 14.8554	 0.0
 308	 1	 1	 0.0	 41.65859320332362	 14.148	 0.0
 309	 1	 1	 0.0	 42.883845944597844	 14.8554	 0.0
 310	 1	 1	 0.0	 44.10909868587207	 14.148	 0.0
 311	 1	 1	 0.0	 45.33435142714629	 14.8554	 0.0
 312	 1	 1	 -0.115	 46.55960416842051	 14.148	 0.0
 313	 1	 11	 0.15	 0.0	 16.977600000000002	 0.0
 314	 1	 3	 0.2	 1.225252741274224	 16.270200000000003	 0.0
 315	 1	 3	 0.2	 2.450505482548448	 16.977600000000002	 0.0
 316	 1	 3	 0.265	 3.675758223822672	 16.270200000000003	 0.0
 317	 1	 3	 0.265	 4.901010965096896	 16.977600000000002	 0.0
 318	 1	 3	 0.265	 6.12626370637112	 16.270200000000003	 0.0
 319	 1	 3	 0.2	 7.351516447645344	 16.977600000000002	 0.0
 320	 1	 3	 0.2	 8.576769188919569	 16.270200000000003	 0.0
 321	 1	 3	 0.2	 9.802021930193792	 16.977600000000002	 0.0
 322	 1	 3	 0.2	 11.027274671468016	 16.270200000000003	 0.0
 323	 1	 1	 0.0	 12.25252741274224	 16.977600000000002	 0.0
 324	 1	 1	 0.0	 13.477780154016463	 16.270200000000003	 0.0
 325	 1	 3	 0.2	 14.703032895290686	 16.977600000000002	 0.0
 326	 1	 3	 0.2	 15.928285636564912	 16.270200000000003	 0.0
 327	 1	 3	 0.2	 17.153538377839137	 16.977600000000002	 0.0
 328	 1	 3	 0.2	 18.378791119113362	 16.270200000000003	 0.0
 329	 1	 3	 0.2	 19.604043860387584	 16.977600000000002	 0.0
 330	 1	 3	 0.2	 20.82929660166181	 16.270200000000003	 0.0
 331	 1	 1	 0.0	 22.05454934293603	 16.977600000000002	 0.0
 332	 1	 3	 0.2	 23.279802084210257	 16.270200000000003	 0.0
 333	 1	 3	 0.2	 24.50505482548448	 16.977600000000002	 0.0
 334	 1	 3	 0.265	 25.730307566758704	 16.270200000000003	 0.0
 335	 1	 3	 0.265	 26.955560308032926	 16.977600000000002	 0.0
 336	 1	 3	 0.265	 28.180813049307154	 16.270200000000003	 0.0
 337	 1	 3	 0.265	 29.406065790581376	 16.977600000000002	 0.0
 338	 1	 3	 0.265	 30.6313185318556	 16.270200000000003	 0.0
 339	 1	 3	 0.2	 31.856571273129823	 16.977600000000002	 0.0
 340	 1	 3	 0.2	 33.08182401440405	 16.270200000000003	 0.0
 341	 1	 3	 0.2	 34.307076755678274	 16.977600000000002	 0.0
 342	 1	 3	 0.2	 35.5323294969525	 16.270200000000003	 0.0
 343	 1	 1	 0.0	 36.757582238226725	 16.977600000000002	 0.0
 344	 1	 1	 0.0	 37.98283497950094	 16.270200000000003	 0.0
 345	 1	 1	 0.0	 39.20808772077517	 16.977600000000002	 0.0
 346	 1	 1	 0.0	 40.433340462049394	 16.270200000000003	 0.0
 347	 1	 1	 0.0	 41.65859320332362	 16.977600000000002	 0.0
 348	 1	 1	 0.0	 42.883845944597844	 16.270200000000003	 0.0
 349	 1	 1	 0.0	 44.10909868587207	 16.977600000000002	 0.0
 350	 1	 1	 0.0	 45.33435142714629	 16.270200000000003	 0.0
 351	 1	 11	 0.15	 46.55960416842051	 16.977600000000002	 0.0
 352	 1	 11	 -0.115	 0.0	 18.392400000000002	 0.0
 353	 1	 3	 0.265	 1.225252741274224	 19.099800000000002	 0.0
 354	 1	 1	 0.0	 2.450505482548448	 18.392400000000002	 0.0
 355	 1	 3	 0.265	 3.675758223822672	 19.099800000000002	 0.0
 356	 1	 1	 0.0	 4.901010965096896	 18.392400000000002	 0.0
 357	 1	 3	 0.2	 6.12626370637112	 19.099800000000002	 0.0
 358	 1	 3	 0.2	 7.351516447645344	 18.392400000000002	 0.0
 359	 1	 3	 0.2	 8.576769188919569	 19.099800000000002	 0.0
 360	 1	 1	 0.0	 9.802021930193792	 18.392400000000002	 0.0
 361	 1	 1	 0.0	 11.027274671468016	 19.099800000000002	 0.0
 362	 1	 1	 0.0	 12.25252741274224	 18.392400000000002	 0.0
 363	 1	 1	 0.0	 13.477780154016463	 19.099800000000002	 0.0
 364	 1	 3	 0.2	 14.703032895290686	 18.392400000000002	 0.0
 365	 1	 3	 0.265	 15.928285636564912	 19.099800000000002	 0.0
 366	 1	 3	 0.265	 17.153538377839137	 18.392400000000002	 0.0
 367	 1	 1	 0.0	 18.378791119113362	 19.099800000000002	 0.0
 368	 1	 3	 0.265	 19.604043860387584	 18.392400000000002	 0.0
 369	 1	 3	 0.2	 20.82929660166181	 19.099800000000002	 0.0
 370	 1	 3	 0.2	 22.05454934293603	 18.392400000000002	 0.0
 371	 1	 3	 0.2	 23.279802084210257	 19.099800000000002	 0.0
 372	 1	 3	 0.2	 24.50505482548448	 18.392400000000002	 0.0
 373	 1	 3	 0.2	 25.730307566758704	 19.099800000000002	 0.0
 374	 1	 3	 0.265	 26.955560308032926	 18.392400000000002	 0.0
 375	 1	 3	 0.265	 28.180813049307154	 19.099800000000002	 0.0
 376	 1	 1	 0.0	 29.406065790581376	 18.392400000000002	 0.0
 377	 1	 3	 0.2	 30.6313185318556	 19.099800000000002	 0.0
 378	 1	 3	 0.2	 31.856571273129823	 18.392400000000002	 0.0
 379	 1	 3	 0.2	 33.08182401440405	 19.099800000000002	 0.0
 380	 1	 1	 0.0	 34.307076755678274	 18.392400000000002	 0.0
 381	 1	 3	 0.2	 35.5323294969525	 19.099800000000002	 0.0
 382	 1	 1	 0.0	 36.757582238226725	 18.392400000000002	 0.0
 383	 1	 3	 0.265	 37.98283497950094	 19.099800000000002	 0.0
 384	 1	 3	 0.265	 39.20808772077517	 18.392400000000002	 0.0
 385	 1	 1	 0.0	 40.433340462049394	 19.099800000000002	 0.0
 386	 1	 1	 0.0	 41.65859320332362	 18.392400000000002	 0.0
 387	 1	 1	 0.0	 42.883845944597844	 19.099800000000002	 0.0
 388	 1	 1	 0.0	 44.10909868587207	 18.392400000000002	 0.0
 389	 1	 1	 0.0	 45.33435142714629	 19.099800000000002	 0.0
 390	 1	 11	 0.15	 46.55960416842051	 18.392400000000002	 0.0
 391	 1	 11	 -0.115	 0.0	 21.222	 0.0
 392	 1	 3	 0.265	 1.225252741274224	 20.5146	 0.0
 393	 1	 3	 0.265	 2.450505482548448	 21.222	 0.0
 394	 1	 3	 0.2	 3.675758223822672	 20.5146	 0.0
 395	 1	 3	 0.2	 4.901010965096896	 21.222	 0.0
 396	 1	 3	 0.2	 6.12626370637112	 20.5146	 0.0
 397	 1	 1	 0.0	 7.351516447645344	 21.222	 0.0
 398	 1	 1	 0.0	 8.576769188919569	 20.5146	 0.0
 399	 1	 1	 0.0	 9.802021930193792	 21.222	 0.0
 400	 1	 1	 0.0	 11.027274671468016	 20.5146	 0.0
 401	 1	 3	 0.2	 12.25252741274224	 21.222	 0.0
 402	 1	 3	 0.2	 13.477780154016463	 20.5146	 0.0
 403	 1	 3	 0.265	 14.703032895290686	 21.222	 0.0
 404	 1	 3	 0.265	 15.928285636564912	 20.5146	 0.0
 405	 1	 3	 0.265	 17.153538377839137	 21.222	 0.0
 406	 1	 3	 0.265	 18.378791119113362	 20.5146	 0.0
 407	 1	 1	 0.0	 19.604043860387584	 21.222	 0.0
 408	 1	 3	 0.265	 20.82929660166181	 20.5146	 0.0
 409	 1	 1	 0.0	 22.05454934293603	 21.222	 0.0
 410	 1	 3	 0.265	 23.279802084210257	 20.5146	 0.0
 411	 1	 1	 0.0	 24.50505482548448	 21.222	 0.0
 412	 1	 3	 0.2	 25.730307566758704	 20.5146	 0.0
 413	 1	 3	 0.2	 26.955560308032926	 21.222	 0.0
 414	 1	 3	 0.265	 28.180813049307154	 20.5146	 0.0
 415	 1	 3	 0.265	 29.406065790581376	 21.222	 0.0
 416	 1	 3	 0.2	 30.6313185318556	 20.5146	 0.0
 417	 1	 3	 0.265	 31.856571273129823	 21.222	 0.0
 418	 1	 1	 0.0	 33.08182401440405	 20.5146	 0.0
 419	 1	 3	 0.265	 34.307076755678274	 21.222	 0.0
 420	 1	 3	 0.2	 35.5323294969525	 20.5146	 0.0
 421	 1	 3	 0.2	 36.757582238226725	 21.222	 0.0
 422	 1	 1	 0.0	 37.98283497950094	 20.5146	 0.0
 423	 1	 1	 0.0	 39.20808772077517	 21.222	 0.0
 424	 1	 1	 0.0	 40.433340462049394	 20.5146	 0.0
 425	 1	 1	 0.0	 41.65859320332362	 21.222	 0.0
 426	 1	 1	 0.0	 42.883845944597844	 20.5146	 0.0
 427	 1	 1	 0.0	 44.10909868587207	 21.222	 0.0
 428	 1	 1	 0.0	 45.33435142714629	 20.5146	 0.0
 429	 1	 11	 0.15	 46.55960416842051	 21.222	 0.0
 430	 1	 1	 -0.115	 0.0	 22.6368	 0.0
 431	 1	 3	 0.2	 1.225252741274224	 23.3442	 0.0
 432	 1	 3	 0.265	 2.450505482548448	 22.6368	 0.0
 433	 1	 3	 0.265	 3.675758223822672	 23.3442	 0.0
 434	 1	 3	 0.2	 4.901010965096896	 22.6368	 0.0
 435	 1	 3	 0.2	 6.12626370637112	 23.3442	 0.0
 436	 1	 1	 0.0	 7.351516447645344	 22.6368	 0.0
 437	 1	 1	 0.0	 8.576769188919569	 23.3442	 0.0
 438	 1	 1	 0.0	 9.802021930193792	 22.6368	 0.0
 439	 1	 3	 0.2	 11.027274671468016	 23.3442	 0.0
 440	 1	 3	 0.2	 12.25252741274224	 22.6368	 0.0
 441	 1	 3	 0.2	 13.477780154016463	 23.3442	 0.0
 442	 1	 3	 0.2	 14.703032895290686	 22.6368	 0.0
 443	 1	 3	 0.265	 15.928285636564912	 23.3442	 0.0
 444	 1	 1	 0.0	 17.153538377839137	 22.6368	 0.0
 445	 1	 3	 0.265	 18.378791119113362	 23.3442	 0.0
 446	 1	 3	 0.265	 19.604043860387584	 22.6368	 0.0
 447	 1	 3	 0.2	 20.82929660166181	 23.3442	 0.0
 448	 1	 3	 0.2	 22.05454934293603	 22.6368	 0.0
 449	 1	 3	 0.2	 23.279802084210257	 23.3442	 0.0
 450	 1	 3	 0.265	 24.50505482548448	 22.6368	 0.0
 451	 1	 3	 0.265	 25.730307566758704	 23.3442	 0.0
 452	 1	 3	 0.2	 26.955560308032926	 22.6368	 0.0
 453	 1	 3	 0.2	 28.180813049307154	 23.3442	 0.0
 454	 1	 1	 0.0	 29.406065790581376	 22.6368	 0.0
 455	 1	 3	 0.2	 30.6313185318556	 23.3442	 0.0
 456	 1	 1	 0.0	 31.856571273129823	 22.6368	 0.0
 457	 1	 3	 0.2	 33.08182401440405	 23.3442	 0.0
 458	 1	 1	 0.0	 34.307076755678274	 22.6368	 0.0
 459	 1	 3	 0.265	 35.5323294969525	 23.3442	 0.0
 460	 1	 3	 0.2	 36.757582238226725	 22.6368	 0.0
 461	 1	 3	 0.2	 37.98283497950094	 23.3442	 0.0
 462	 1	 3	 0.2	 39.20808772077517	 22.6368	 0.0
 463	 1	 3	 0.2	 40.433340462049394	 23.3442	 0.0
 464	 1	 1	 0.0	 41.65859320332362	 22.6368	 0.0
 465	 1	 1	 0.0	 42.883845944597844	 23.3442	 0.0
 466	 1	 1	 0.0	 44.10909868587207	 22.6368	 0.0
 467	 1	 1	 0.0	 45.33435142714629	 23.3442	 0.0
 468	 1	 1	 -0.115	 46.55960416842051	 22.6368	 0.0
 469	 1	 11	 -0.115	 0.0	 25.466400000000004	 0.0
 470	 1	 3	 0.2	 1.225252741274224	 24.759000000000004	 0.0
 471	 1	 3	 0.265	 2.450505482548448	 25.466400000000004	 0.0
 472	 1	 3	 0.265	 3.675758223822672	 24.759000000000004	 0.0
 473	 1	 3	 0.265	 4.901010965096896	 25.466400000000004	 0.0
 474	 1	 3	 0.2	 6.12626370637112	 24.759000000000004	 0.0
 475	 1	 3	 0.2	 7.351516447645344	 25.466400000000004	 0.0
 476	 1	 1	 0.0	 8.576769188919569	 24.759000000000004	 0.0
 477	 1	 1	 0.0	 9.802021930193792	 25.466400000000004	 0.0
 478	 1	 1	 0.0	 11.027274671468016	 24.759000000000004	 0.0
 479	 1	 3	 0.2	 12.25252741274224	 25.466400000000004	 0.0
 480	 1	 3	 0.2	 13.477780154016463	 24.759000000000004	 0.0
 481	 1	 3	 0.265	 14.703032895290686	 25.466400000000004	 0.0
 482	 1	 3	 0.265	 15.928285636564912	 24.759000000000004	 0.0
 483	 1	 3	 0.2	 17.153538377839137	 25.466400000000004	 0.0
 484	 1	 3	 0.265	 18.378791119113362	 24.759000000000004	 0.0