# graphene
880 atoms 
1320 bonds 
2640 angles 
5280 dihedrals 
880 impropers 

1 atom types 
1 bond types 
1 angle types 
1 dihedral types 
1 improper types 

0.0	49.01010965096896	 xlo xhi 
0.0	46.68840000000001	 ylo yhi 
-10.0	10.0	 zlo zhi 


 Masses 
 
1	12.011

 Pair Coeffs 
 
1	0.148	3.617

 Bond Coeffs 
 
1	480.0	1.34

 Angle Coeffs 
 
1	90.0	120.0

 Dihedral Coeffs 
 
1	3.0	2	180	0.0

 Improper Coeffs 
 
1	0.370	-1	2

 Atoms 
 
1	 1	 1	 0	 0.0	 0.0	 0.0
 2	 1	 1	 0	 0.0	 1.4148	 0.0
 3	 1	 1	 0	 1.225252741274224	 2.1222000000000003	 0.0
 4	 1	 1	 0	 1.225252741274224	 3.537	 0.0
 5	 1	 1	 0	 0.0	 4.244400000000001	 0.0
 6	 1	 1	 0	 0.0	 5.6592	 0.0
 7	 1	 1	 0	 1.225252741274224	 6.366600000000001	 0.0
 8	 1	 1	 0	 1.225252741274224	 7.7814000000000005	 0.0
 9	 1	 1	 0	 0.0	 8.488800000000001	 0.0
 10	 1	 1	 0	 0.0	 9.9036	 0.0
 11	 1	 1	 0	 1.225252741274224	 10.611	 0.0
 12	 1	 1	 0	 1.225252741274224	 12.0258	 0.0
 13	 1	 1	 0	 0.0	 12.733200000000002	 0.0
 14	 1	 1	 0	 0.0	 14.148000000000001	 0.0
 15	 1	 1	 0	 1.225252741274224	 14.855400000000003	 0.0
 16	 1	 1	 0	 1.225252741274224	 16.270200000000003	 0.0
 17	 1	 1	 0	 0.0	 16.977600000000002	 0.0
 18	 1	 1	 0	 0.0	 18.392400000000002	 0.0
 19	 1	 1	 0	 1.225252741274224	 19.099800000000002	 0.0
 20	 1	 1	 0	 1.225252741274224	 20.5146	 0.0
 21	 1	 1	 0	 0.0	 21.222	 0.0
 22	 1	 1	 0	 0.0	 22.6368	 0.0
 23	 1	 1	 0	 1.225252741274224	 23.3442	 0.0
 24	 1	 1	 0	 1.225252741274224	 24.759	 0.0
 25	 1	 1	 0	 0.0	 25.466400000000004	 0.0
 26	 1	 1	 0	 0.0	 26.881200000000003	 0.0
 27	 1	 1	 0	 1.225252741274224	 27.588600000000003	 0.0
 28	 1	 1	 0	 1.225252741274224	 29.003400000000003	 0.0
 29	 1	 1	 0	 0.0	 29.710800000000006	 0.0
 30	 1	 1	 0	 0.0	 31.125600000000006	 0.0
 31	 1	 1	 0	 1.225252741274224	 31.833000000000006	 0.0
 32	 1	 1	 0	 1.225252741274224	 33.247800000000005	 0.0
 33	 1	 1	 0	 0.0	 33.955200000000005	 0.0
 34	 1	 1	 0	 0.0	 35.370000000000005	 0.0
 35	 1	 1	 0	 1.225252741274224	 36.077400000000004	 0.0
 36	 1	 1	 0	 1.225252741274224	 37.492200000000004	 0.0
 37	 1	 1	 0	 0.0	 38.199600000000004	 0.0
 38	 1	 1	 0	 0.0	 39.6144	 0.0
 39	 1	 1	 0	 1.225252741274224	 40.3218	 0.0
 40	 1	 1	 0	 1.225252741274224	 41.7366	 0.0
 41	 1	 1	 0	 0.0	 42.444	 0.0
 42	 1	 1	 0	 0.0	 43.8588	 0.0
 43	 1	 1	 0	 1.225252741274224	 44.5662	 0.0
 44	 1	 1	 0	 1.225252741274224	 45.981	 0.0
 45	 1	 1	 0	 2.450505482548448	 0.0	 0.0
 46	 1	 1	 0	 2.450505482548448	 1.4148	 0.0
 47	 1	 1	 0	 3.675758223822672	 2.1222000000000003	 0.0
 48	 1	 1	 0	 3.675758223822672	 3.537	 0.0
 49	 1	 1	 0	 2.450505482548448	 4.244400000000001	 0.0
 50	 1	 1	 0	 2.450505482548448	 5.6592	 0.0
 51	 1	 1	 0	 3.675758223822672	 6.366600000000001	 0.0
 52	 1	 1	 0	 3.675758223822672	 7.7814000000000005	 0.0
 53	 1	 1	 0	 2.450505482548448	 8.488800000000001	 0.0
 54	 1	 1	 0	 2.450505482548448	 9.9036	 0.0
 55	 1	 1	 0	 3.675758223822672	 10.611	 0.0
 56	 1	 1	 0	 3.675758223822672	 12.0258	 0.0
 57	 1	 1	 0	 2.450505482548448	 12.733200000000002	 0.0
 58	 1	 1	 0	 2.450505482548448	 14.148000000000001	 0.0
 59	 1	 1	 0	 3.675758223822672	 14.855400000000003	 0.0
 60	 1	 1	 0	 3.675758223822672	 16.270200000000003	 0.0
 61	 1	 1	 0	 2.450505482548448	 16.977600000000002	 0.0
 62	 1	 1	 0	 2.450505482548448	 18.392400000000002	 0.0
 63	 1	 1	 0	 3.675758223822672	 19.099800000000002	 0.0
 64	 1	 1	 0	 3.675758223822672	 20.5146	 0.0
 65	 1	 1	 0	 2.450505482548448	 21.222	 0.0
 66	 1	 1	 0	 2.450505482548448	 22.6368	 0.0
 67	 1	 1	 0	 3.675758223822672	 23.3442	 0.0
 68	 1	 1	 0	 3.675758223822672	 24.759	 0.0
 69	 1	 1	 0	 2.450505482548448	 25.466400000000004	 0.0
 70	 1	 1	 0	 2.450505482548448	 26.881200000000003	 0.0
 71	 1	 1	 0	 3.675758223822672	 27.588600000000003	 0.0
 72	 1	 1	 0	 3.675758223822672	 29.003400000000003	 0.0
 73	 1	 1	 0	 2.450505482548448	 29.710800000000006	 0.0
 74	 1	 1	 0	 2.450505482548448	 31.125600000000006	 0.0
 75	 1	 1	 0	 3.675758223822672	 31.833000000000006	 0.0
 76	 1	 1	 0	 3.675758223822672	 33.247800000000005	 0.0
 77	 1	 1	 0	 2.450505482548448	 33.955200000000005	 0.0
 78	 1	 1	 0	 2.450505482548448	 35.370000000000005	 0.0
 79	 1	 1	 0	 3.675758223822672	 36.077400000000004	 0.0
 80	 1	 1	 0	 3.675758223822672	 37.492200000000004	 0.0
 81	 1	 1	 0	 2.450505482548448	 38.199600000000004	 0.0
 82	 1	 1	 0	 2.450505482548448	 39.6144	 0.0
 83	 1	 1	 0	 3.675758223822672	 40.3218	 0.0
 84	 1	 1	 0	 3.675758223822672	 41.7366	 0.0
 85	 1	 1	 0	 2.450505482548448	 42.444	 0.0
 86	 1	 1	 0	 2.450505482548448	 43.8588	 0.0
 87	 1	 1	 0	 3.675758223822672	 44.5662	 0.0
 88	 1	 1	 0	 3.675758223822672	 45.981	 0.0
 89	 1	 1	 0	 4.901010965096896	 0.0	 0.0
 90	 1	 1	 0	 4.901010965096896	 1.4148	 0.0
 91	 1	 1	 0	 6.12626370637112	 2.1222000000000003	 0.0
 92	 1	 1	 0	 6.12626370637112	 3.537	 0.0
 93	 1	 1	 0	 4.901010965096896	 4.244400000000001	 0.0
 94	 1	 1	 0	 4.901010965096896	 5.6592	 0.0
 95	 1	 1	 0	 6.12626370637112	 6.366600000000001	 0.0
 96	 1	 1	 0	 6.12626370637112	 7.7814000000000005	 0.0
 97	 1	 1	 0	 4.901010965096896	 8.488800000000001	 0.0
 98	 1	 1	 0	 4.901010965096896	 9.9036	 0.0
 99	 1	 1	 0	 6.12626370637112	 10.611	 0.0
 100	 1	 1	 0	 6.12626370637112	 12.0258	 0.0
 101	 1	 1	 0	 4.901010965096896	 12.733200000000002	 0.0
 102	 1	 1	 0	 4.901010965096896	 14.148000000000001	 0.0
 103	 1	 1	 0	 6.12626370637112	 14.855400000000003	 0.0
 104	 1	 1	 0	 6.12626370637112	 16.270200000000003	 0.0
 105	 1	 1	 0	 4.901010965096896	 16.977600000000002	 0.0
 106	 1	 1	 0	 4.901010965096896	 18.392400000000002	 0.0
 107	 1	 1	 0	 6.12626370637112	 19.099800000000002	 0.0
 108	 1	 1	 0	 6.12626370637112	 20.5146	 0.0
 109	 1	 1	 0	 4.901010965096896	 21.222	 0.0
 110	 1	 1	 0	 4.901010965096896	 22.6368	 0.0
 111	 1	 1	 0	 6.12626370637112	 23.3442	 0.0
 112	 1	 1	 0	 6.12626370637112	 24.759	 0.0
 113	 1	 1	 0	 4.901010965096896	 25.466400000000004	 0.0
 114	 1	 1	 0	 4.901010965096896	 26.881200000000003	 0.0
 115	 1	 1	 0	 6.12626370637112	 27.588600000000003	 0.0
 116	 1	 1	 0	 6.12626370637112	 29.003400000000003	 0.0
 117	 1	 1	 0	 4.901010965096896	 29.710800000000006	 0.0
 118	 1	 1	 0	 4.901010965096896	 31.125600000000006	 0.0
 119	 1	 1	 0	 6.12626370637112	 31.833000000000006	 0.0
 120	 1	 1	 0	 6.12626370637112	 33.247800000000005	 0.0
 121	 1	 1	 0	 4.901010965096896	 33.955200000000005	 0.0
 122	 1	 1	 0	 4.901010965096896	 35.370000000000005	 0.0
 123	 1	 1	 0	 6.12626370637112	 36.077400000000004	 0.0
 124	 1	 1	 0	 6.12626370637112	 37.492200000000004	 0.0
 125	 1	 1	 0	 4.901010965096896	 38.199600000000004	 0.0
 126	 1	 1	 0	 4.901010965096896	 39.6144	 0.0
 127	 1	 1	 0	 6.12626370637112	 40.3218	 0.0
 128	 1	 1	 0	 6.12626370637112	 41.7366	 0.0
 129	 1	 1	 0	 4.901010965096896	 42.444	 0.0
 130	 1	 1	 0	 4.901010965096896	 43.8588	 0.0
 131	 1	 1	 0	 6.12626370637112	 44.5662	 0.0
 132	 1	 1	 0	 6.12626370637112	 45.981	 0.0
 133	 1	 1	 0	 7.351516447645344	 0.0	 0.0
 134	 1	 1	 0	 7.351516447645344	 1.4148	 0.0
 135	 1	 1	 0	 8.576769188919569	 2.1222000000000003	 0.0
 136	 1	 1	 0	 8.576769188919569	 3.537	 0.0
 137	 1	 1	 0	 7.351516447645344	 4.244400000000001	 0.0
 138	 1	 1	 0	 7.351516447645344	 5.6592	 0.0
 139	 1	 1	 0	 8.576769188919569	 6.366600000000001	 0.0
 140	 1	 1	 0	 8.576769188919569	 7.7814000000000005	 0.0
 141	 1	 1	 0	 7.351516447645344	 8.488800000000001	 0.0
 142	 1	 1	 0	 7.351516447645344	 9.9036	 0.0
 143	 1	 1	 0	 8.576769188919569	 10.611	 0.0
 144	 1	 1	 0	 8.576769188919569	 12.0258	 0.0
 145	 1	 1	 0	 7.351516447645344	 12.733200000000002	 0.0
 146	 1	 1	 0	 7.351516447645344	 14.148000000000001	 0.0
 147	 1	 1	 0	 8.576769188919569	 14.855400000000003	 0.0
 148	 1	 1	 0	 8.576769188919569	 16.270200000000003	 0.0
 149	 1	 1	 0	 7.351516447645344	 16.977600000000002	 0.0
 150	 1	 1	 0	 7.351516447645344	 18.392400000000002	 0.0
 151	 1	 1	 0	 8.576769188919569	 19.099800000000002	 0.0
 152	 1	 1	 0	 8.576769188919569	 20.5146	 0.0
 153	 1	 1	 0	 7.351516447645344	 21.222	 0.0
 154	 1	 1	 0	 7.351516447645344	 22.6368	 0.0
 155	 1	 1	 0	 8.576769188919569	 23.3442	 0.0
 156	 1	 1	 0	 8.576769188919569	 24.759	 0.0
 157	 1	 1	 0	 7.351516447645344	 25.466400000000004	 0.0
 158	 1	 1	 0	 7.351516447645344	 26.881200000000003	 0.0
 159	 1	 1	 0	 8.576769188919569	 27.588600000000003	 0.0
 160	 1	 1	 0	 8.576769188919569	 29.003400000000003	 0.0
 161	 1	 1	 0	 7.351516447645344	 29.710800000000006	 0.0
 162	 1	 1	 0	 7.351516447645344	 31.125600000000006	 0.0
 163	 1	 1	 0	 8.576769188919569	 31.833000000000006	 0.0
 164	 1	 1	 0	 8.576769188919569	 33.247800000000005	 0.0
 165	 1	 1	 0	 7.351516447645344	 33.955200000000005	 0.0
 166	 1	 1	 0	 7.351516447645344	 35.370000000000005	 0.0
 167	 1	 1	 0	 8.576769188919569	 36.077400000000004	 0.0
 168	 1	 1	 0	 8.576769188919569	 37.492200000000004	 0.0
 169	 1	 1	 0	 7.351516447645344	 38.199600000000004	 0.0
 170	 1	 1	 0	 7.351516447645344	 39.6144	 0.0
 171	 1	 1	 0	 8.576769188919569	 40.3218	 0.0
 172	 1	 1	 0	 8.576769188919569	 41.7366	 0.0
 173	 1	 1	 0	 7.351516447645344	 42.444	 0.0
 174	 1	 1	 0	 7.351516447645344	 43.8588	 0.0
 175	 1	 1	 0	 8.576769188919569	 44.5662	 0.0
 176	 1	 1	 0	 8.576769188919569	 45.981	 0.0
 177	 1	 1	 0	 9.802021930193792	 0.0	 0.0
 178	 1	 1	 0	 9.802021930193792	 1.4148	 0.0
 179	 1	 1	 0	 11.027274671468016	 2.1222000000000003	 0.0
 180	 1	 1	 0	 11.027274671468016	 3.537	 0.0
 181	 1	 1	 0	 9.802021930193792	 4.244400000000001	 0.0
 182	 1	 1	 0	 9.802021930193792	 5.6592	 0.0
 183	 1	 1	 0	 11.027274671468016	 6.366600000000001	 0.0
 184	 1	 1	 0	 11.027274671468016	 7.7814000000000005	 0.0
 185	 1	 1	 0	 9.802021930193792	 8.488800000000001	 0.0
 186	 1	 1	 0	 9.802021930193792	 9.9036	 0.0
 187	 1	 1	 0	 11.027274671468016	 10.611	 0.0
 188	 1	 1	 0	 11.027274671468016	 12.0258	 0.0
 189	 1	 1	 0	 9.802021930193792	 12.733200000000002	 0.0
 190	 1	 1	 0	 9.802021930193792	 14.148000000000001	 0.0
 191	 1	 1	 0	 11.027274671468016	 14.855400000000003	 0.0
 192	 1	 1	 0	 11.027274671468016	 16.270200000000003	 0.0
 193	 1	 1	 0	 9.802021930193792	 16.977600000000002	 0.0
 194	 1	 1	 0	 9.802021930193792	 18.392400000000002	 0.0
 195	 1	 1	 0	 11.027274671468016	 19.099800000000002	 0.0
 196	 1	 1	 0	 11.027274671468016	 20.5146	 0.0
 197	 1	 1	 0	 9.802021930193792	 21.222	 0.0
 198	 1	 1	 0	 9.802021930193792	 22.6368	 0.0
 199	 1	 1	 0	 11.027274671468016	 23.3442	 0.0
 200	 1	 1	 0	 11.027274671468016	 24.759	 0.0
 201	 1	 1	 0	 9.802021930193792	 25.466400000000004	 0.0
 202	 1	 1	 0	 9.802021930193792	 26.881200000000003	 0.0
 203	 1	 1	 0	 11.027274671468016	 27.588600000000003	 0.0
 204	 1	 1	 0	 11.027274671468016	 29.003400000000003	 0.0
 205	 1	 1	 0	 9.802021930193792	 29.710800000000006	 0.0
 206	 1	 1	 0	 9.802021930193792	 31.125600000000006	 0.0
 207	 1	 1	 0	 11.027274671468016	 31.833000000000006	 0.0
 208	 1	 1	 0	 11.027274671468016	 33.247800000000005	 0.0
 209	 1	 1	 0	 9.802021930193792	 33.955200000000005	 0.0
 210	 1	 1	 0	 9.802021930193792	 35.370000000000005	 0.0
 211	 1	 1	 0	 11.027274671468016	 36.077400000000004	 0.0
 212	 1	 1	 0	 11.027274671468016	 37.492200000000004	 0.0
 213	 1	 1	 0	 9.802021930193792	 38.199600000000004	 0.0
 214	 1	 1	 0	 9.802021930193792	 39.6144	 0.0
 215	 1	 1	 0	 11.027274671468016	 40.3218	 0.0
 216	 1	 1	 0	 11.027274671468016	 41.7366	 0.0
 217	 1	 1	 0	 9.802021930193792	 42.444	 0.0
 218	 1	 1	 0	 9.802021930193792	 43.8588	 0.0
 219	 1	 1	 0	 11.027274671468016	 44.5662	 0.0
 220	 1	 1	 0	 11.027274671468016	 45.981	 0.0
 221	 1	 1	 0	 12.25252741274224	 0.0	 0.0
 222	 1	 1	 0	 12.25252741274224	 1.4148	 0.0
 223	 1	 1	 0	 13.477780154016463	 2.1222000000000003	 0.0
 224	 1	 1	 0	 13.477780154016463	 3.537	 0.0
 225	 1	 1	 0	 12.25252741274224	 4.244400000000001	 0.0
 226	 1	 1	 0	 12.25252741274224	 5.6592	 0.0
 227	 1	 1	 0	 13.477780154016463	 6.366600000000001	 0.0
 228	 1	 1	 0	 13.477780154016463	 7.7814000000000005	 0.0
 229	 1	 1	 0	 12.25252741274224	 8.488800000000001	 0.0
 230	 1	 1	 0	 12.25252741274224	 9.9036	 0.0
 231	 1	 1	 0	 13.477780154016463	 10.611	 0.0
 232	 1	 1	 0	 13.477780154016463	 12.0258	 0.0
 233	 1	 1	 0	 12.25252741274224	 12.733200000000002	 0.0
 234	 1	 1	 0	 12.25252741274224	 14.148000000000001	 0.0
 235	 1	 1	 0	 13.477780154016463	 14.855400000000003	 0.0
 236	 1	 1	 0	 13.477780154016463	 16.270200000000003	 0.0
 237	 1	 1	 0	 12.25252741274224	 16.977600000000002	 0.0
 238	 1	 1	 0	 12.25252741274224	 18.392400000000002	 0.0
 239	 1	 1	 0	 13.477780154016463	 19.099800000000002	 0.0
 240	 1	 1	 0	 13.477780154016463	 20.5146	 0.0
 241	 1	 1	 0	 12.25252741274224	 21.222	 0.0
 242	 1	 1	 0	 12.25252741274224	 22.6368	 0.0
 243	 1	 1	 0	 13.477780154016463	 23.3442	 0.0
 244	 1	 1	 0	 13.477780154016463	 24.759	 0.0
 245	 1	 1	 0	 12.25252741274224	 25.466400000000004	 0.0
 246	 1	 1	 0	 12.25252741274224	 26.881200000000003	 0.0
 247	 1	 1	 0	 13.477780154016463	 27.588600000000003	 0.0
 248	 1	 1	 0	 13.477780154016463	 29.003400000000003	 0.0
 249	 1	 1	 0	 12.25252741274224	 29.710800000000006	 0.0
 250	 1	 1	 0	 12.25252741274224	 31.125600000000006	 0.0
 251	 1	 1	 0	 13.477780154016463	 31.833000000000006	 0.0
 252	 1	 1	 0	 13.477780154016463	 33.247800000000005	 0.0
 253	 1	 1	 0	 12.25252741274224	 33.955200000000005	 0.0
 254	 1	 1	 0	 12.25252741274224	 35.370000000000005	 0.0
 255	 1	 1	 0	 13.477780154016463	 36.077400000000004	 0.0
 256	 1	 1	 0	 13.477780154016463	 37.492200000000004	 0.0
 257	 1	 1	 0	 12.25252741274224	 38.199600000000004	 0.0
 258	 1	 1	 0	 12.25252741274224	 39.6144	 0.0
 259	 1	 1	 0	 13.477780154016463	 40.3218	 0.0
 260	 1	 1	 0	 13.477780154016463	 41.7366	 0.0
 261	 1	 1	 0	 12.25252741274224	 42.444	 0.0
 262	 1	 1	 0	 12.25252741274224	 43.8588	 0.0
 263	 1	 1	 0	 13.477780154016463	 44.5662	 0.0
 264	 1	 1	 0	 13.477780154016463	 45.981	 0.0
 265	 1	 1	 0	 14.703032895290688	 0.0	 0.0
 266	 1	 1	 0	 14.703032895290688	 1.4148	 0.0
 267	 1	 1	 0	 15.928285636564912	 2.1222000000000003	 0.0
 268	 1	 1	 0	 15.928285636564912	 3.537	 0.0
 269	 1	 1	 0	 14.703032895290688	 4.244400000000001	 0.0
 270	 1	 1	 0	 14.703032895290688	 5.6592	 0.0
 271	 1	 1	 0	 15.928285636564912	 6.366600000000001	 0.0
 272	 1	 1	 0	 15.928285636564912	 7.7814000000000005	 0.0
 273	 1	 1	 0	 14.703032895290688	 8.488800000000001	 0.0
 274	 1	 1	 0	 14.703032895290688	 9.9036	 0.0
 275	 1	 1	 0	 15.928285636564912	 10.611	 0.0
 276	 1	 1	 0	 15.928285636564912	 12.0258	 0.0
 277	 1	 1	 0	 14.703032895290688	 12.733200000000002	 0.0
 278	 1	 1	 0	 14.703032895290688	 14.148000000000001	 0.0
 279	 1	 1	 0	 15.928285636564912	 14.855400000000003	 0.0
 280	 1	 1	 0	 15.928285636564912	 16.270200000000003	 0.0
 281	 1	 1	 0	 14.703032895290688	 16.977600000000002	 0.0
 282	 1	 1	 0	 14.703032895290688	 18.392400000000002	 0.0
 283	 1	 1	 0	 15.928285636564912	 19.099800000000002	 0.0
 284	 1	 1	 0	 15.928285636564912	 20.5146	 0.0
 285	 1	 1	 0	 14.703032895290688	 21.222	 0.0
 286	 1	 1	 0	 14.703032895290688	 22.6368	 0.0
 287	 1	 1	 0	 15.928285636564912	 23.3442	 0.0
 288	 1	 1	 0	 15.928285636564912	 24.759	 0.0
 289	 1	 1	 0	 14.703032895290688	 25.466400000000004	 0.0
 290	 1	 1	 0	 14.703032895290688	 26.881200000000003	 0.0
 291	 1	 1	 0	 15.928285636564912	 27.588600000000003	 0.0
 292	 1	 1	 0	 15.928285636564912	 29.003400000000003	 0.0
 293	 1	 1	 0	 14.703032895290688	 29.710800000000006	 0.0
 294	 1	 1	 0	 14.703032895290688	 31.125600000000006	 0.0
 295	 1	 1	 0	 15.928285636564912	 31.833000000000006	 0.0
 296	 1	 1	 0	 15.928285636564912	 33.247800000000005	 0.0
 297	 1	 1	 0	 14.703032895290688	 33.955200000000005	 0.0
 298	 1	 1	 0	 14.703032895290688	 35.370000000000005	 0.0
 299	 1	 1	 0	 15.928285636564912	 36.077400000000004	 0.0
 300	 1	 1	 0	 15.928285636564912	 37.492200000000004	 0.0
 301	 1	 1	 0	 14.703032895290688	 38.199600000000004	 0.0
 302	 1	 1	 0	 14.703032895290688	 39.6144	 0.0
 303	 1	 1	 0	 15.928285636564912	 40.3218	 0.0
 304	 1	 1	 0	 15.928285636564912	 41.7366	 0.0
 305	 1	 1	 0	 14.703032895290688	 42.444	 0.0
 306	 1	 1	 0	 14.703032895290688	 43.8588	 0.0
 307	 1	 1	 0	 15.928285636564912	 44.5662	 0.0
 308	 1	 1	 0	 15.928285636564912	 45.981	 0.0
 309	 1	 1	 0	 17.153538377839137	 0.0	 0.0
 310	 1	 1	 0	 17.153538377839137	 1.4148	 0.0
 311	 1	 1	 0	 18.378791119113362	 2.1222000000000003	 0.0
 312	 1	 1	 0	 18.378791119113362	 3.537	 0.0
 313	 1	 1	 0	 17.153538377839137	 4.244400000000001	 0.0
 314	 1	 1	 0	 17.153538377839137	 5.6592	 0.0
 315	 1	 1	 0	 18.378791119113362	 6.366600000000001	 0.0
 316	 1	 1	 0	 18.378791119113362	 7.7814000000000005	 0.0
 317	 1	 1	 0	 17.153538377839137	 8.488800000000001	 0.0
 318	 1	 1	 0	 17.153538377839137	 9.9036	 0.0
 319	 1	 1	 0	 18.378791119113362	 10.611	 0.0
 320	 1	 1	 0	 18.378791119113362	 12.0258	 0.0
 321	 1	 1	 0	 17.153538377839137	 12.733200000000002	 0.0
 322	 1	 1	 0	 17.153538377839137	 14.148000000000001	 0.0
 323	 1	 1	 0	 18.378791119113362	 14.855400000000003	 0.0
 324	 1	 1	 0	 18.378791119113362	 16.270200000000003	 0.0
 325	 1	 1	 0	 17.153538377839137	 16.977600000000002	 0.0
 326	 1	 1	 0	 17.153538377839137	 18.392400000000002	 0.0
 327	 1	 1	 0	 18.378791119113362	 19.099800000000002	 0.0
 328	 1	 1	 0	 18.378791119113362	 20.5146	 0.0
 329	 1	 1	 0	 17.153538377839137	 21.222	 0.0
 330	 1	 1	 0	 17.153538377839137	 22.6368	 0.0
 331	 1	 1	 0	 18.378791119113362	 23.3442	 0.0
 332	 1	 1	 0	 18.378791119113362	 24.759	 0.0
 333	 1	 1	 0	 17.153538377839137	 25.466400000000004	 0.0
 334	 1	 1	 0	 17.153538377839137	 26.881200000000003	 0.0
 335	 1	 1	 0	 18.378791119113362	 27.588600000000003	 0.0
 336	 1	 1	 0	 18.378791119113362	 29.003400000000003	 0.0
 337	 1	 1	 0	 17.153538377839137	 29.710800000000006	 0.0
 338	 1	 1	 0	 17.153538377839137	 31.125600000000006	 0.0
 339	 1	 1	 0	 18.378791119113362	 31.833000000000006	 0.0
 340	 1	 1	 0	 18.378791119113362	 33.247800000000005	 0.0
 341	 1	 1	 0	 17.153538377839137	 33.955200000000005	 0.0
 342	 1	 1	 0	 17.153538377839137	 35.370000000000005	 0.0
 343	 1	 1	 0	 18.378791119113362	 36.077400000000004	 0.0
 344	 1	 1	 0	 18.378791119113362	 37.492200000000004	 0.0
 345	 1	 1	 0	 17.153538377839137	 38.199600000000004	 0.0
 346	 1	 1	 0	 17.153538377839137	 39.6144	 0.0
 347	 1	 1	 0	 18.378791119113362	 40.3218	 0.0
 348	 1	 1	 0	 18.378791119113362	 41.7366	 0.0
 349	 1	 1	 0	 17.153538377839137	 42.444	 0.0
 350	 1	 1	 0	 17.153538377839137	 43.8588	 0.0
 351	 1	 1	 0	 18.378791119113362	 44.5662	 0.0
 352	 1	 1	 0	 18.378791119113362	 45.981	 0.0
 353	 1	 1	 0	 19.604043860387584	 0.0	 0.0
 354	 1	 1	 0	 19.604043860387584	 1.4148	 0.0
 355	 1	 1	 0	 20.82929660166181	 2.1222000000000003	 0.0
 356	 1	 1	 0	 20.82929660166181	 3.537	 0.0
 357	 1	 1	 0	 19.604043860387584	 4.244400000000001	 0.0
 358	 1	 1	 0	 19.604043860387584	 5.6592	 0.0
 359	 1	 1	 0	 20.82929660166181	 6.366600000000001	 0.0
 360	 1	 1	 0	 20.82929660166181	 7.7814000000000005	 0.0
 361	 1	 1	 0	 19.604043860387584	 8.488800000000001	 0.0
 362	 1	 1	 0	 19.604043860387584	 9.9036	 0.0
 363	 1	 1	 0	 20.82929660166181	 10.611	 0.0
 364	 1	 1	 0	 20.82929660166181	 12.0258	 0.0
 365	 1	 1	 0	 19.604043860387584	 12.733200000000002	 0.0
 366	 1	 1	 0	 19.604043860387584	 14.148000000000001	 0.0
 367	 1	 1	 0	 20.82929660166181	 14.855400000000003	 0.0
 368	 1	 1	 0	 20.82929660166181	 16.270200000000003	 0.0
 369	 1	 1	 0	 19.604043860387584	 16.977600000000002	 0.0
 370	 1	 1	 0	 19.604043860387584	 18.392400000000002	 0.0
 371	 1	 1	 0	 20.82929660166181	 19.099800000000002	 0.0
 372	 1	 1	 0	 20.82929660166181	 20.5146	 0.0
 373	 1	 1	 0	 19.604043860387584	 21.222	 0.0
 374	 1	 1	 0	 19.604043860387584	 22.6368	 0.0
 375	 1	 1	 0	 20.82929660166181	 23.3442	 0.0
 376	 1	 1	 0	 20.82929660166181	 24.759	 0.0
 377	 1	 1	 0	 19.604043860387584	 25.466400000000004	 0.0
 378	 1	 1	 0	 19.604043860387584	 26.881200000000003	 0.0
 379	 1	 1	 0	 20.82929660166181	 27.588600000000003	 0.0
 380	 1	 1	 0	 20.82929660166181	 29.003400000000003	 0.0
 381	 1	 1	 0	 19.604043860387584	 29.710800000000006	 0.0
 382	 1	 1	 0	 19.604043860387584	 31.125600000000006	 0.0
 383	 1	 1	 0	 20.82929660166181	 31.833000000000006	 0.0
 384	 1	 1	 0	 20.82929660166181	 33.247800000000005	 0.0
 385	 1	 1	 0	 19.604043860387584	 33.955200000000005	 0.0
 386	 1	 1	 0	 19.604043860387584	 35.370000000000005	 0.0
 387	 1	 1	 0	 20.82929660166181	 36.077400000000004	 0.0
 388	 1	 1	 0	 20.82929660166181	 37.492200000000004	 0.0
 389	 1	 1	 0	 19.604043860387584	 38.199600000000004	 0.0
 390	 1	 1	 0	 19.604043860387584	 39.6144	 0.0
 391	 1	 1	 0	 20.82929660166181	 40.3218	 0.0
 392	 1	 1	 0	 20.82929660166181	 41.7366	 0.0
 393	 1	 1	 0	 19.604043860387584	 42.444	 0.0
 394	 1	 1	 0	 19.604043860387584	 43.8588	 0.0
 395	 1	 1	 0	 20.82929660166181	 44.5662	 0.0
 396	 1	 1	 0	 20.82929660166181	 45.981	 0.0
 397	 1	 1	 0	 22.05454934293603	 0.0	 0.0
 398	 1	 1	 0	 22.05454934293603	 1.4148	 0.0
 399	 1	 1	 0	 23.279802084210257	 2.1222000000000003	 0.0
 400	 1	 1	 0	 23.279802084210257	 3.537	 0.0
 401	 1	 1	 0	 22.05454934293603	 4.244400000000001	 0.0
 402	 1	 1	 0	 22.05454934293603	 5.6592	 0.0
 403	 1	 1	 0	 23.279802084210257	 6.366600000000001	 0.0
 404	 1	 1	 0	 23.279802084210257	 7.7814000000000005	 0.0
 405	 1	 1	 0	 22.05454934293603	 8.488800000000001	 0.0
 406	 1	 1	 0	 22.05454934293603	 9.9036	 0.0
 407	 1	 1	 0	 23.279802084210257	 10.611	 0.0
 408	 1	 1	 0	 23.279802084210257	 12.0258	 0.0
 409	 1	 1	 0	 22.05454934293603	 12.733200000000002	 0.0
 410	 1	 1	 0	 22.05454934293603	 14.148000000000001	 0.0
 411	 1	 1	 0	 23.279802084210257	 14.855400000000003	 0.0
 412	 1	 1	 0	 23.279802084210257	 16.270200000000003	 0.0
 413	 1	 1	 0	 22.05454934293603	 16.977600000000002	 0.0
 414	 1	 1	 0	 22.05454934293603	 18.392400000000002	 0.0
 415	 1	 1	 0	 23.279802084210257	 19.099800000000002	 0.0
 416	 1	 1	 0	 23.279802084210257	 20.5146	 0.0
 417	 1	 1	 0	 22.05454934293603	 21.222	 0.0
 418	 1	 1	 0	 22.05454934293603	 22.6368	 0.0
 419	 1	 1	 0	 23.279802084210257	 23.3442	 0.0
 420	 1	 1	 0	 23.279802084210257	 24.759	 0.0
 421	 1	 1	 0	 22.05454934293603	 25.466400000000004	 0.0
 422	 1	 1	 0	 22.05454934293603	 26.881200000000003	 0.0
 423	 1	 1	 0	 23.279802084210257	 27.588600000000003	 0.0
 424	 1	 1	 0	 23.279802084210257	 29.003400000000003	 0.0
 425	 1	 1	 0	 22.05454934293603	 29.710800000000006	 0.0
 426	 1	 1	 0	 22.05454934293603	 31.125600000000006	 0.0
 427	 1	 1	 0	 23.279802084210257	 31.833000000000006	 0.0
 428	 1	 1	 0	 23.279802084210257	 33.247800000000005	 0.0
 429	 1	 1	 0	 22.05454934293603	 33.955200000000005	 0.0
 430	 1	 1	 0	 22.05454934293603	 35.370000000000005	 0.0
 431	 1	 1	 0	 23.279802084210257	 36.077400000000004	 0.0
 432	 1	 1	 0	 23.279802084210257	 37.492200000000004	 0.0
 433	 1	 1	 0	 22.05454934293603	 38.199600000000004	 0.0
 434	 1	 1	 0	 22.05454934293603	 39.6144	 0.0
 435	 1	 1	 0	 23.279802084210257	 40.3218	 0.0
 436	 1	 1	 0	 23.279802084210257	 41.7366	 0.0
 437	 1	 1	 0	 22.05454934293603	 42.444	 0.0
 438	 1	 1	 0	 22.05454934293603	 43.8588	 0.0
 439	 1	 1	 0	 23.279802084210257	 44.5662	 0.0
 440	 1	 1	 0	 23.279802084210257	 45.981	 0.0
 441	 1	 1	 0	 24.50505482548448	 0.0	 0.0
 442	 1	 1	 0	 24.50505482548448	 1.4148	 0.0
 443	 1	 1	 0	 25.730307566758704	 2.1222000000000003	 0.0
 444	 1	 1	 0	 25.730307566758704	 3.537	 0.0
 445	 1	 1	 0	 24.50505482548448	 4.244400000000001	 0.0
 446	 1	 1	 0	 24.50505482548448	 5.6592	 0.0
 447	 1	 1	 0	 25.730307566758704	 6.366600000000001	 0.0
 448	 1	 1	 0	 25.730307566758704	 7.7814000000000005	 0.0
 449	 1	 1	 0	 24.50505482548448	 8.488800000000001	 0.0
 450	 1	 1	 0	 24.50505482548448	 9.9036	 0.0
 451	 1	 1	 0	 25.730307566758704	 10.611	 0.0
 452	 1	 1	 0	 25.730307566758704	 12.0258	 0.0
 453	 1	 1	 0	 24.50505482548448	 12.733200000000002	 0.0
 454	 1	 1	 0	 24.50505482548448	 14.148000000000001	 0.0
 455	 1	 1	 0	 25.730307566758704	 14.855400000000003	 0.0
 456	 1	 1	 0	 25.730307566758704	 16.270200000000003	 0.0
 457	 1	 1	 0	 24.50505482548448	 16.977600000000002	 0.0
 458	 1	 1	 0	 24.50505482548448	 18.392400000000002	 0.0
 459	 1	 1	 0	 25.730307566758704	 19.099800000000002	 0.0
 460	 1	 1	 0	 25.730307566758704	 20.5146	 0.0
 461	 1	 1	 0	 24.50505482548448	 21.222	 0.0
 462	 1	 1	 0	 24.50505482548448	 22.6368	 0.0
 463	 1	 1	 0	 25.730307566758704	 23.3442	 0.0
 464	 1	 1	 0	 25.730307566758704	 24.759	 0.0
 465	 1	 1	 0	 24.50505482548448	 25.466400000000004	 0.0
 466	 1	 1	 0	 24.50505482548448	 26.881200000000003	 0.0
 467	 1	 1	 0	 25.730307566758704	 27.588600000000003	 0.0
 468	 1	 1	 0	 25.730307566758704	 29.003400000000003	 0.0
 469	 1	 1	 0	 24.50505482548448	 29.710800000000006	 0.0
 470	 1	 1	 0	 24.50505482548448	 31.125600000000006	 0.0
 471	 1	 1	 0	 25.730307566758704	 31.833000000000006	 0.0
 472	 1	 1	 0	 25.730307566758704	 33.247800000000005	 0.0
 473	 1	 1	 0	 24.50505482548448	 33.955200000000005	 0.0
 474	 1	 1	 0	 24.50505482548448	 35.370000000000005	 0.0
 475	 1	 1	 0	 25.730307566758704	 36.077400000000004	 0.0
 476	 1	 1	 0	 25.730307566758704	 37.492200000000004	 0.0
 477	 1	 1	 0	 24.50505482548448	 38.199600000000004	 0.0
 478	 1	 1	 0	 24.50505482548448	 39.6144	 0.0
 479	 1	 1	 0	 25.730307566758704	 40.3218	 0.0
 480	 1	 1	 0	 25.730307566758704	 41.7366	 0.0
 481	 1	 1	 0	 24.50505482548448	 42.444	 0.0
 482	 1	 1	 0	 24.50505482548448	 43.8588	 0.0
 483	 1	 1	 0	 25.730307566758704	 44.5662	 0.0
 484	 1	 1	 0	 25.730307566758704	 45.981	 0.0
 485	 1	 1	 0	 26.95556030803293	 0.0	 0.0
 486	 1	 1	 0	 26.95556030803293	 1.4148	 0.0
 487	 1	 1	 0	 28.180813049307154	 2.1222000000000003	 0.0
 488	 1	 1	 0	 28.180813049307154	 3.537	 0.0
 489	 1	 1	 0	 26.95556030803293	 4.244400000000001	 0.0
 490	 1	 1	 0	 26.95556030803293	 5.6592	 0.0
 491	 1	 1	 0	 28.180813049307154	 6.366600000000001	 0.0
 492	 1	 1	 0	 28.180813049307154	 7.7814000000000005	 0.0
 493	 1	 1	 0	 26.95556030803293	 8.488800000000001	 0.0
 494	 1	 1	 0	 26.95556030803293	 9.9036	 0.0
 495	 1	 1	 0	 28.180813049307154	 10.611	 0.0
 496	 1	 1	 0	 28.180813049307154	 12.0258	 0.0
 497	 1	 1	 0	 26.95556030803293	 12.733200000000002	 0.0
 498	 1	 1	 0	 26.95556030803293	 14.148000000000001	 0.0
 499	 1	 1	 0	 28.180813049307154	 14.855400000000003	 0.0
 500	 1	 1	 0	 28.180813049307154	 16.270200000000003	 0.0
 501	 1	 1	 0	 26.95556030803293	 16.977600000000002	 0.0
 502	 1	 1	 0	 26.95556030803293	 18.392400000000002	 0.0
 503	 1	 1	 0	 28.180813049307154	 19.099800000000002	 0.0
 504	 1	 1	 0	 28.180813049307154	 20.5146	 0.0
 505	 1	 1	 0	 26.95556030803293	 21.222	 0.0
 506	 1	 1	 0	 26.95556030803293	 22.6368	 0.0
 507	 1	 1	 0	 28.180813049307154	 23.3442	 0.0
 508	 1	 1	 0	 28.180813049307154	 24.759	 0.0
 509	 1	 1	 0	 26.95556030803293	 25.466400000000004	 0.0
 510	 1	 1	 0	 26.95556030803293	 26.881200000000003	 0.0
 511	 1	 1	 0	 28.180813049307154	 27.588600000000003	 0.0
 512	 1	 1	 0	 28.180813049307154	 29.003400000000003	 0.0
 513	 1	 1	 0	 26.95556030803293	 29.710800000000006	 0.0
 514	 1	 1	 0	 26.95556030803293	 31.125600000000006	 0.0
 515	 1	 1	 0	 28.180813049307154	 31.833000000000006	 0.0
 516	 1	 1	 0	 28.180813049307154	 33.247800000000005	 0.0
 517	 1	 1	 0	 26.95556030803293	 33.955200000000005	 0.0
 518	 1	 1	 0	 26.95556030803293	 35.370000000000005	 0.0
 519	 1	 1	 0	 28.180813049307154	 36.077400000000004	 0.0
 520	 1	 1	 0	 28.180813049307154	 37.492200000000004	 0.0
 521	 1	 1	 0	 26.95556030803293	 38.199600000000004	 0.0
 522	 1	 1	 0	 26.95556030803293	 39.6144	 0.0
 523	 1	 1	 0	 28.180813049307154	 40.3218	 0.0
 524	 1	 1	 0	 28.180813049307154	 41.7366	 0.0
 525	 1	 1	 0	 26.95556030803293	 42.444	 0.0
 526	 1	 1	 0	 26.95556030803293	 43.8588	 0.0
 527	 1	 1	 0	 28.180813049307154	 44.5662	 0.0
 528	 1	 1	 0	 28.180813049307154	 45.981	 0.0
 529	 1	 1	 0	 29.406065790581376	 0.0	 0.0
 530	 1	 1	 0	 29.406065790581376	 1.4148	 0.0
 531	 1	 1	 0	 30.6313185318556	 2.1222000000000003	 0.0
 532	 1	 1	 0	 30.6313185318556	 3.537	 0.0
 533	 1	 1	 0	 29.406065790581376	 4.244400000000001	 0.0
 534	 1	 1	 0	 29.406065790581376	 5.6592	 0.0
 535	 1	 1	 0	 30.6313185318556	 6.366600000000001	 0.0
 536	 1	 1	 0	 30.6313185318556	 7.7814000000000005	 0.0
 537	 1	 1	 0	 29.406065790581376	 8.488800000000001	 0.0
 538	 1	 1	 0	 29.406065790581376	 9.9036	 0.0
 539	 1	 1	 0	 30.6313185318556	 10.611	 0.0
 540	 1	 1	 0	 30.6313185318556	 12.0258	 0.0
 541	 1	 1	 0	 29.406065790581376	 12.733200000000002	 0.0
 542	 1	 1	 0	 29.406065790581376	 14.148000000000001	 0.0
 543	 1	 1	 0	 30.6313185318556	 14.855400000000003	 0.0
 544	 1	 1	 0	 30.6313185318556	 16.270200000000003	 0.0
 545	 1	 1	 0	 29.406065790581376	 16.977600000000002	 0.0
 546	 1	 1	 0	 29.406065790581376	 18.392400000000002	 0.0
 547	 1	 1	 0	 30.6313185318556	 19.099800000000002	 0.0
 548	 1	 1	 0	 30.6313185318556	 20.5146	 0.0
 549	 1	 1	 0	 29.406065790581376	 21.222	 0.0
 550	 1	 1	 0	 29.406065790581376	 22.6368	 0.0
 551	 1	 1	 0	 30.6313185318556	 23.3442	 0.0
 552	 1	 1	 0	 30.6313185318556	 24.759	 0.0
 553	 1	 1	 0	 29.406065790581376	 25.466400000000004	 0.0
 554	 1	 1	 0	 29.406065790581376	 26.881200000000003	 0.0
 555	 1	 1	 0	 30.6313185318556	 27.588600000000003	 0.0
 556	 1	 1	 0	 30.6313185318556	 29.003400000000003	 0.0
 557	 1	 1	 0	 29.406065790581376	 29.710800000000006	 0.0
 558	 1	 1	 0	 29.406065790581376	 31.125600000000006	 0.0
 559	 1	 1	 0	 30.6313185318556	 31.833000000000006	 0.0
 560	 1	 1	 0	 30.6313185318556	 33.247800000000005	 0.0
 561	 1	 1	 0	 29.406065790581376	 33.955200000000005	 0.0
 562	 1	 1	 0	 29.406065790581376	 35.370000000000005	 0.0